TITLE =  "Filtration in time=8000.00" 
VARIABLES = "Y","S_w","S_n","S_g","P_w","T","uw_y","un_y","ug_y","porosity" 
ZONE T = "BIG ZONE", K=25, F = POINT
1.00e+00 1.50000e-01 1.50000e-01 7.00000e-01 1.10000e+05 2.85000e+02 -2.58386e-07 -1.05014e-07 -1.44860e-02 4.00000e-01
9.58e-01 1.52942e-01 1.72620e-01 6.74438e-01 1.09749e+05 2.84786e+02 -2.82066e-07 -1.83190e-07 -1.41055e-02 4.00000e-01
9.17e-01 1.60505e-01 1.94561e-01 6.44934e-01 1.09483e+05 2.84307e+02 -3.48204e-07 -2.95764e-07 -1.40397e-02 4.00000e-01
8.75e-01 1.69186e-01 2.11370e-01 6.19444e-01 1.09199e+05 2.83945e+02 -4.39436e-07 -4.16460e-07 -1.40914e-02 4.00000e-01
8.33e-01 1.77190e-01 2.23753e-01 5.99057e-01 1.08895e+05 2.83853e+02 -5.44341e-07 -5.35819e-07 -1.41826e-02 4.00000e-01
7.92e-01 1.84243e-01 2.33166e-01 5.82592e-01 1.08575e+05 2.83978e+02 -6.58265e-07 -6.53168e-07 -1.42789e-02 4.00000e-01
7.50e-01 1.90565e-01 2.40814e-01 5.68621e-01 1.08239e+05 2.84197e+02 -7.79905e-07 -7.70305e-07 -1.43673e-02 4.00000e-01
7.08e-01 1.96388e-01 2.47414e-01 5.56198e-01 1.07888e+05 2.84414e+02 -9.08914e-07 -8.88159e-07 -1.44471e-02 4.00000e-01
6.67e-01 2.01843e-01 2.53287e-01 5.44870e-01 1.07522e+05 2.84587e+02 -1.04492e-06 -1.00611e-06 -1.45217e-02 4.00000e-01
6.25e-01 2.06993e-01 2.58542e-01 5.34464e-01 1.07143e+05 2.84708e+02 -1.18736e-06 -1.12258e-06 -1.45943e-02 4.00000e-01
5.83e-01 2.11868e-01 2.63212e-01 5.24919e-01 1.06749e+05 2.84789e+02 -1.33564e-06 -1.23574e-06 -1.46666e-02 4.00000e-01
5.42e-01 2.16489e-01 2.67317e-01 5.16194e-01 1.06342e+05 2.84841e+02 -1.48922e-06 -1.34397e-06 -1.47396e-02 4.00000e-01
5.00e-01 2.20877e-01 2.70884e-01 5.08239e-01 1.05922e+05 2.84876e+02 -1.64764e-06 -1.44600e-06 -1.48135e-02 4.00000e-01
4.58e-01 2.25053e-01 2.73950e-01 5.00997e-01 1.05490e+05 2.84900e+02 -1.81053e-06 -1.54097e-06 -1.48884e-02 4.00000e-01
4.17e-01 2.29036e-01 2.76559e-01 4.94405e-01 1.05045e+05 2.84917e+02 -1.97755e-06 -1.62836e-06 -1.49646e-02 4.00000e-01
3.75e-01 2.32842e-01 2.78757e-01 4.88401e-01 1.04588e+05 2.84930e+02 -2.14832e-06 -1.70798e-06 -1.50419e-02 4.00000e-01
3.33e-01 2.36483e-01 2.80592e-01 4.82925e-01 1.04119e+05 2.84940e+02 -2.32247e-06 -1.77992e-06 -1.51204e-02 4.00000e-01
2.92e-01 2.39969e-01 2.82108e-01 4.77923e-01 1.03640e+05 2.84947e+02 -2.49957e-06 -1.84454e-06 -1.52003e-02 4.00000e-01
2.50e-01 2.43306e-01 2.83353e-01 4.73341e-01 1.03150e+05 2.84954e+02 -2.67919e-06 -1.90241e-06 -1.52814e-02 4.00000e-01
2.08e-01 2.46499e-01 2.84370e-01 4.69131e-01 1.02649e+05 2.84959e+02 -2.86087e-06 -1.95427e-06 -1.53638e-02 4.00000e-01
1.67e-01 2.49553e-01 2.85198e-01 4.65250e-01 1.02138e+05 2.84963e+02 -3.04420e-06 -2.00092e-06 -1.54476e-02 4.00000e-01
1.25e-01 2.52473e-01 2.85877e-01 4.61650e-01 1.01618e+05 2.84965e+02 -3.22876e-06 -2.04319e-06 -1.55326e-02 4.00000e-01
8.33e-02 2.55275e-01 2.86456e-01 4.58269e-01 1.01088e+05 2.84959e+02 -3.41412e-06 -2.08177e-06 -1.56182e-02 4.00000e-01
4.17e-02 2.58014e-01 2.87052e-01 4.54933e-01 1.00549e+05 2.84916e+02 -3.59949e-06 -2.11708e-06 -1.57006e-02 4.00000e-01
0.00e+00 2.58014e-01 2.87052e-01 4.54933e-01 1.00000e+05 2.85000e+02 -3.64175e-06 -2.14468e-06 -1.58342e-02 4.00000e-01
