TITLE =  "Filtration in time=5000.00" 
VARIABLES = "Y","S_w","S_n","S_g","P_w","T","uw_y","un_y","ug_y","porosity" 
ZONE T = "BIG ZONE", K=25, F = POINT
1.00e+00 1.50000e-01 1.50000e-01 7.00000e-01 1.10000e+05 2.85000e+02 -2.17442e-07 -8.83734e-08 -1.21906e-02 4.00000e-01
9.58e-01 1.64321e-01 1.93724e-01 6.41955e-01 1.09789e+05 2.84108e+02 -3.07327e-07 -2.33343e-07 -1.14410e-02 4.00000e-01
9.17e-01 1.80288e-01 2.20733e-01 5.98979e-01 1.09549e+05 2.83575e+02 -4.65616e-07 -4.04394e-07 -1.15564e-02 4.00000e-01
8.75e-01 1.93170e-01 2.37474e-01 5.69357e-01 1.09281e+05 2.83666e+02 -6.51335e-07 -5.72996e-07 -1.17195e-02 4.00000e-01
8.33e-01 2.03710e-01 2.49078e-01 5.47212e-01 1.08990e+05 2.84024e+02 -8.55071e-07 -7.37374e-07 -1.18510e-02 4.00000e-01
7.92e-01 2.12876e-01 2.58082e-01 5.29042e-01 1.08678e+05 2.84366e+02 -1.07441e-06 -8.97487e-07 -1.19508e-02 4.00000e-01
7.50e-01 2.21154e-01 2.65432e-01 5.13414e-01 1.08347e+05 2.84603e+02 -1.30806e-06 -1.05049e-06 -1.20335e-02 4.00000e-01
7.08e-01 2.28753e-01 2.71438e-01 4.99808e-01 1.07997e+05 2.84745e+02 -1.55455e-06 -1.19242e-06 -1.21091e-02 4.00000e-01
6.67e-01 2.35781e-01 2.76257e-01 4.87963e-01 1.07630e+05 2.84826e+02 -1.81227e-06 -1.32004e-06 -1.21817e-02 4.00000e-01
6.25e-01 2.42310e-01 2.80035e-01 4.77656e-01 1.07247e+05 2.84874e+02 -2.07961e-06 -1.43172e-06 -1.22525e-02 4.00000e-01
5.83e-01 2.48396e-01 2.82936e-01 4.68668e-01 1.06848e+05 2.84904e+02 -2.35500e-06 -1.52736e-06 -1.23220e-02 4.00000e-01
5.42e-01 2.54083e-01 2.85126e-01 4.60791e-01 1.06435e+05 2.84924e+02 -2.63688e-06 -1.60817e-06 -1.23901e-02 4.00000e-01
5.00e-01 2.59403e-01 2.86761e-01 4.53836e-01 1.06008e+05 2.84938e+02 -2.92379e-06 -1.67617e-06 -1.24572e-02 4.00000e-01
4.58e-01 2.64382e-01 2.87979e-01 4.47639e-01 1.05568e+05 2.84949e+02 -3.21440e-06 -1.73373e-06 -1.25234e-02 4.00000e-01
4.17e-01 2.69041e-01 2.88894e-01 4.42065e-01 1.05115e+05 2.84957e+02 -3.50759e-06 -1.78325e-06 -1.25890e-02 4.00000e-01
3.75e-01 2.73403e-01 2.89595e-01 4.37003e-01 1.04652e+05 2.84963e+02 -3.80250e-06 -1.82682e-06 -1.26546e-02 4.00000e-01
3.33e-01 2.77489e-01 2.90147e-01 4.32364e-01 1.04176e+05 2.84968e+02 -4.09851e-06 -1.86617e-06 -1.27203e-02 4.00000e-01
2.92e-01 2.81320e-01 2.90598e-01 4.28082e-01 1.03690e+05 2.84973e+02 -4.39520e-06 -1.90256e-06 -1.27865e-02 4.00000e-01
2.50e-01 2.84918e-01 2.90979e-01 4.24103e-01 1.03194e+05 2.84976e+02 -4.69230e-06 -1.93691e-06 -1.28537e-02 4.00000e-01
2.08e-01 2.88302e-01 2.91310e-01 4.20387e-01 1.02687e+05 2.84979e+02 -4.98963e-06 -1.96987e-06 -1.29219e-02 4.00000e-01
1.67e-01 2.91491e-01 2.91606e-01 4.16903e-01 1.02169e+05 2.84981e+02 -5.28707e-06 -2.00186e-06 -1.29915e-02 4.00000e-01
1.25e-01 2.94501e-01 2.91877e-01 4.13622e-01 1.01642e+05 2.84982e+02 -5.58452e-06 -2.03314e-06 -1.30624e-02 4.00000e-01
8.33e-02 2.97357e-01 2.92140e-01 4.10503e-01 1.01105e+05 2.84978e+02 -5.88173e-06 -2.06381e-06 -1.31344e-02 4.00000e-01
4.17e-02 3.00126e-01 2.92482e-01 4.07392e-01 1.00557e+05 2.84939e+02 -6.17749e-06 -2.09344e-06 -1.32037e-02 4.00000e-01
0.00e+00 3.00126e-01 2.92482e-01 4.07392e-01 1.00000e+05 2.85000e+02 -6.24750e-06 -2.11915e-06 -1.33221e-02 4.00000e-01
