TITLE =  "Filtration in time=25000.00" 
VARIABLES = "Y","S_w","S_n","S_g","P_w","T","uw_y","un_y","ug_y","porosity" 
ZONE T = "BIG ZONE", K=25, F = POINT
1.00e+00 1.50000e-01 1.50000e-01 7.00000e-01 1.10000e+05 2.85000e+02 -3.64795e-07 -1.48261e-07 -2.04517e-02 4.00000e-01
9.58e-01 1.49808e-01 1.50266e-01 6.99927e-01 1.09646e+05 2.85008e+02 -3.63926e-07 -1.49716e-07 -2.04832e-02 4.00000e-01
9.17e-01 1.49413e-01 1.51717e-01 6.98870e-01 1.09290e+05 2.85022e+02 -3.62463e-07 -1.56496e-07 -2.05288e-02 4.00000e-01
8.75e-01 1.48766e-01 1.54803e-01 6.96430e-01 1.08932e+05 2.85039e+02 -3.59905e-07 -1.71090e-07 -2.05663e-02 4.00000e-01
8.33e-01 1.47988e-01 1.59294e-01 6.92718e-01 1.08572e+05 2.85057e+02 -3.57293e-07 -1.93961e-07 -2.06070e-02 4.00000e-01
7.92e-01 1.47325e-01 1.64670e-01 6.88005e-01 1.08207e+05 2.85064e+02 -3.56388e-07 -2.24162e-07 -2.06539e-02 4.00000e-01
7.50e-01 1.47041e-01 1.70469e-01 6.82490e-01 1.07837e+05 2.85047e+02 -3.59039e-07 -2.60291e-07 -2.07050e-02 4.00000e-01
7.08e-01 1.47306e-01 1.76364e-01 6.76329e-01 1.07461e+05 2.84997e+02 -3.66504e-07 -3.00863e-07 -2.07587e-02 4.00000e-01
6.67e-01 1.48143e-01 1.82131e-01 6.69726e-01 1.07079e+05 2.84912e+02 -3.79110e-07 -3.44406e-07 -2.08156e-02 4.00000e-01
6.25e-01 1.49458e-01 1.87605e-01 6.62938e-01 1.06690e+05 2.84803e+02 -3.96382e-07 -3.89521e-07 -2.08775e-02 4.00000e-01
5.83e-01 1.51101e-01 1.92673e-01 6.56225e-01 1.06294e+05 2.84683e+02 -4.17408e-07 -4.34978e-07 -2.09457e-02 4.00000e-01
5.42e-01 1.52925e-01 1.97270e-01 6.49805e-01 1.05890e+05 2.84571e+02 -4.41196e-07 -4.79829e-07 -2.10208e-02 4.00000e-01
5.00e-01 1.54812e-01 2.01376e-01 6.43812e-01 1.05479e+05 2.84480e+02 -4.66904e-07 -5.23498e-07 -2.11023e-02 4.00000e-01
4.58e-01 1.56685e-01 2.05015e-01 6.38300e-01 1.05060e+05 2.84420e+02 -4.93938e-07 -5.65805e-07 -2.11894e-02 4.00000e-01
4.17e-01 1.58505e-01 2.08244e-01 6.33251e-01 1.04635e+05 2.84394e+02 -5.21967e-07 -6.06923e-07 -2.12809e-02 4.00000e-01
3.75e-01 1.60261e-01 2.11140e-01 6.28599e-01 1.04202e+05 2.84400e+02 -5.50868e-07 -6.47264e-07 -2.13759e-02 4.00000e-01
3.33e-01 1.61958e-01 2.13783e-01 6.24259e-01 1.03762e+05 2.84431e+02 -5.80655e-07 -6.87348e-07 -2.14733e-02 4.00000e-01
2.92e-01 1.63609e-01 2.16247e-01 6.20144e-01 1.03316e+05 2.84480e+02 -6.11403e-07 -7.27674e-07 -2.15727e-02 4.00000e-01
2.50e-01 1.65227e-01 2.18590e-01 6.16183e-01 1.02863e+05 2.84538e+02 -6.43190e-07 -7.68638e-07 -2.16738e-02 4.00000e-01
2.08e-01 1.66821e-01 2.20853e-01 6.12326e-01 1.02403e+05 2.84598e+02 -6.76063e-07 -8.10494e-07 -2.17766e-02 4.00000e-01
1.67e-01 1.68397e-01 2.23058e-01 6.08544e-01 1.01936e+05 2.84656e+02 -7.10026e-07 -8.53349e-07 -2.18811e-02 4.00000e-01
1.25e-01 1.69958e-01 2.25220e-01 6.04822e-01 1.01463e+05 2.84708e+02 -7.45041e-07 -8.97197e-07 -2.19873e-02 4.00000e-01
8.33e-02 1.71505e-01 2.27344e-01 6.01152e-01 1.00982e+05 2.84750e+02 -7.81054e-07 -9.41976e-07 -2.20954e-02 4.00000e-01
4.17e-02 1.73039e-01 2.29439e-01 5.97522e-01 1.00495e+05 2.84782e+02 -8.18059e-07 -9.87705e-07 -2.22050e-02 4.00000e-01
0.00e+00 1.73039e-01 2.29439e-01 5.97522e-01 1.00000e+05 2.85000e+02 -8.30526e-07 -1.00609e-06 -2.23559e-02 4.00000e-01
