TITLE =  "Filtration in time=2000.00" 
VARIABLES = "Y","S_w","S_n","S_g","P_w","T","uw_y","un_y","ug_y","porosity" 
ZONE T = "BIG ZONE", K=25, F = POINT
1.00e+00 1.50000e-01 1.50000e-01 7.00000e-01 1.10000e+05 2.85000e+02 -1.53731e-07 -6.24797e-08 -8.61869e-03 4.00000e-01
9.58e-01 2.04814e-01 2.35127e-01 5.60060e-01 1.09851e+05 2.82952e+02 -4.97646e-07 -3.30323e-07 -7.33973e-03 4.00000e-01
9.17e-01 2.31991e-01 2.61042e-01 5.06966e-01 1.09641e+05 2.83702e+02 -1.00257e-06 -6.13940e-07 -7.93503e-03 4.00000e-01
8.75e-01 2.51123e-01 2.74568e-01 4.74309e-01 1.09393e+05 2.84385e+02 -1.55720e-06 -8.51597e-07 -8.16708e-03 4.00000e-01
8.33e-01 2.66694e-01 2.82754e-01 4.50552e-01 1.09114e+05 2.84708e+02 -2.15152e-06 -1.03769e-06 -8.29931e-03 4.00000e-01
7.92e-01 2.79932e-01 2.87635e-01 4.32433e-01 1.08809e+05 2.84843e+02 -2.77501e-06 -1.17496e-06 -8.39707e-03 4.00000e-01
7.50e-01 2.91369e-01 2.90448e-01 4.18183e-01 1.08480e+05 2.84903e+02 -3.41598e-06 -1.27381e-06 -8.47545e-03 4.00000e-01
7.08e-01 3.01336e-01 2.92074e-01 4.06590e-01 1.08131e+05 2.84934e+02 -4.06499e-06 -1.34687e-06 -8.54023e-03 4.00000e-01
6.67e-01 3.10084e-01 2.93069e-01 3.96847e-01 1.07763e+05 2.84952e+02 -4.71601e-06 -1.40442e-06 -8.59590e-03 4.00000e-01
6.25e-01 3.17816e-01 2.93743e-01 3.88441e-01 1.07379e+05 2.84964e+02 -5.36570e-06 -1.45314e-06 -8.64604e-03 4.00000e-01
5.83e-01 3.24700e-01 2.94252e-01 3.81048e-01 1.06978e+05 2.84973e+02 -6.01225e-06 -1.49681e-06 -8.69316e-03 4.00000e-01
5.42e-01 3.30874e-01 2.94670e-01 3.74456e-01 1.06563e+05 2.84979e+02 -6.65452e-06 -1.53740e-06 -8.73881e-03 4.00000e-01
5.00e-01 3.36445e-01 2.95032e-01 3.68523e-01 1.06132e+05 2.84983e+02 -7.29161e-06 -1.57593e-06 -8.78390e-03 4.00000e-01
4.58e-01 3.41500e-01 2.95357e-01 3.63143e-01 1.05689e+05 2.84986e+02 -7.92270e-06 -1.61299e-06 -8.82899e-03 4.00000e-01
4.17e-01 3.46106e-01 2.95655e-01 3.58239e-01 1.05231e+05 2.84989e+02 -8.54694e-06 -1.64890e-06 -8.87444e-03 4.00000e-01
3.75e-01 3.50319e-01 2.95933e-01 3.53748e-01 1.04761e+05 2.84991e+02 -9.16347e-06 -1.68391e-06 -8.92049e-03 4.00000e-01
3.33e-01 3.54182e-01 2.96194e-01 3.49624e-01 1.04278e+05 2.84992e+02 -9.77138e-06 -1.71816e-06 -8.96733e-03 4.00000e-01
2.92e-01 3.57730e-01 2.96443e-01 3.45827e-01 1.03783e+05 2.84993e+02 -1.03697e-05 -1.75179e-06 -9.01509e-03 4.00000e-01
2.50e-01 3.60993e-01 2.96682e-01 3.42326e-01 1.03276e+05 2.84994e+02 -1.09574e-05 -1.78488e-06 -9.06389e-03 4.00000e-01
2.08e-01 3.63994e-01 2.96912e-01 3.39094e-01 1.02757e+05 2.84995e+02 -1.15333e-05 -1.81749e-06 -9.11383e-03 4.00000e-01
1.67e-01 3.66754e-01 2.97135e-01 3.36112e-01 1.02227e+05 2.84996e+02 -1.20963e-05 -1.84968e-06 -9.16499e-03 4.00000e-01
1.25e-01 3.69288e-01 2.97352e-01 3.33360e-01 1.01686e+05 2.84996e+02 -1.26450e-05 -1.88147e-06 -9.21744e-03 4.00000e-01
8.33e-02 3.71612e-01 2.97564e-01 3.30824e-01 1.01135e+05 2.84996e+02 -1.31780e-05 -1.91285e-06 -9.27120e-03 4.00000e-01
4.17e-02 3.73759e-01 2.97788e-01 3.28453e-01 1.00572e+05 2.84984e+02 -1.36922e-05 -1.94314e-06 -9.32534e-03 4.00000e-01
0.00e+00 3.73759e-01 2.97788e-01 3.28453e-01 1.00000e+05 2.85000e+02 -1.38240e-05 -1.96232e-06 -9.40933e-03 4.00000e-01
