TITLE =  "Filtration in time=8000.00" 
VARIABLES = "Y","S_w","S_n","S_g","P_w","T","uw_y","un_y","ug_y","porosity" 
ZONE T = "BIG ZONE", K=25, F = POINT
1.00e+00 1.50000e-01 1.50000e-01 7.00000e-01 1.10000e+05 3.20000e+02 -6.51440e-07 -5.76896e-07 -1.50007e-02 4.00000e-01
9.58e-01 1.52886e-01 1.57826e-01 6.89288e-01 1.09719e+05 3.16909e+02 -6.64305e-07 -6.16984e-07 -1.48245e-02 4.00000e-01
9.17e-01 1.59091e-01 1.74810e-01 6.66099e-01 1.09435e+05 3.11564e+02 -7.05633e-07 -7.32429e-07 -1.44929e-02 4.00000e-01
8.75e-01 1.68447e-01 1.99462e-01 6.32090e-01 1.09143e+05 3.04852e+02 -7.80653e-07 -9.20078e-07 -1.40719e-02 4.00000e-01
8.33e-01 1.79411e-01 2.26414e-01 5.94175e-01 1.08838e+05 2.98256e+02 -8.83084e-07 -1.14123e-06 -1.36952e-02 4.00000e-01
7.92e-01 1.90103e-01 2.50013e-01 5.59885e-01 1.08512e+05 2.92929e+02 -1.00192e-06 -1.35132e-06 -1.34606e-02 4.00000e-01
7.50e-01 1.99286e-01 2.67223e-01 5.33490e-01 1.08164e+05 2.89263e+02 -1.12821e-06 -1.52303e-06 -1.33830e-02 4.00000e-01
7.08e-01 2.06672e-01 2.78009e-01 5.15319e-01 1.07793e+05 2.87057e+02 -1.25718e-06 -1.64821e-06 -1.34118e-02 4.00000e-01
6.67e-01 2.12627e-01 2.83938e-01 5.03435e-01 1.07405e+05 2.85877e+02 -1.38791e-06 -1.73083e-06 -1.34856e-02 4.00000e-01
6.25e-01 2.17690e-01 2.86779e-01 4.95531e-01 1.07003e+05 2.85308e+02 -1.52169e-06 -1.78044e-06 -1.35664e-02 4.00000e-01
5.83e-01 2.22264e-01 2.87870e-01 4.89865e-01 1.06590e+05 2.85062e+02 -1.65994e-06 -1.80740e-06 -1.36416e-02 4.00000e-01
5.42e-01 2.26559e-01 2.88053e-01 4.85388e-01 1.06168e+05 2.84967e+02 -1.80306e-06 -1.82045e-06 -1.37104e-02 4.00000e-01
5.00e-01 2.30647e-01 2.87817e-01 4.81536e-01 1.05738e+05 2.84939e+02 -1.95043e-06 -1.82629e-06 -1.37750e-02 4.00000e-01
4.58e-01 2.34537e-01 2.87446e-01 4.78017e-01 1.05300e+05 2.84935e+02 -2.10094e-06 -1.82991e-06 -1.38375e-02 4.00000e-01
4.17e-01 2.38222e-01 2.87099e-01 4.74679e-01 1.04855e+05 2.84940e+02 -2.25361e-06 -1.83474e-06 -1.38990e-02 4.00000e-01
3.75e-01 2.41701e-01 2.86856e-01 4.71444e-01 1.04403e+05 2.84946e+02 -2.40782e-06 -1.84282e-06 -1.39605e-02 4.00000e-01
3.33e-01 2.44982e-01 2.86744e-01 4.68273e-01 1.03944e+05 2.84953e+02 -2.56334e-06 -1.85494e-06 -1.40227e-02 4.00000e-01
2.92e-01 2.48084e-01 2.86758e-01 4.65159e-01 1.03477e+05 2.84958e+02 -2.72024e-06 -1.87103e-06 -1.40862e-02 4.00000e-01
2.50e-01 2.51024e-01 2.86871e-01 4.62104e-01 1.03004e+05 2.84963e+02 -2.87868e-06 -1.89046e-06 -1.41514e-02 4.00000e-01
2.08e-01 2.53824e-01 2.87056e-01 4.59121e-01 1.02522e+05 2.84967e+02 -3.03879e-06 -1.91242e-06 -1.42185e-02 4.00000e-01
1.67e-01 2.56498e-01 2.87283e-01 4.56219e-01 1.02033e+05 2.84970e+02 -3.20067e-06 -1.93610e-06 -1.42875e-02 4.00000e-01
1.25e-01 2.59063e-01 2.87537e-01 4.53400e-01 1.01537e+05 2.84970e+02 -3.36428e-06 -1.96080e-06 -1.43582e-02 4.00000e-01
8.33e-02 2.61543e-01 2.87824e-01 4.50632e-01 1.01032e+05 2.84960e+02 -3.52939e-06 -1.98587e-06 -1.44298e-02 4.00000e-01
4.17e-02 2.64016e-01 2.88256e-01 4.47728e-01 1.00520e+05 2.84900e+02 -3.69513e-06 -2.01052e-06 -1.44972e-02 4.00000e-01
0.00e+00 2.64016e-01 2.88256e-01 4.47728e-01 1.00000e+05 2.84900e+02 -3.72407e-06 -2.02626e-06 -1.46107e-02 4.00000e-01
