TITLE =  "Filtration in time=25000.00" 
VARIABLES = "Y","S_w","S_n","S_g","P_w","T","uw_y","un_y","ug_y","porosity" 
ZONE T = "BIG ZONE", K=25, F = POINT
1.00e+00 1.50000e-01 1.50000e-01 7.00000e-01 1.10000e+05 3.20000e+02 -8.32458e-07 -7.37200e-07 -1.91690e-02 4.00000e-01
9.58e-01 1.49932e-01 1.50006e-01 7.00063e-01 1.09640e+05 3.19944e+02 -8.31597e-07 -7.36863e-07 -1.92011e-02 4.00000e-01
9.17e-01 1.49934e-01 1.50193e-01 6.99874e-01 1.09280e+05 3.19810e+02 -8.32297e-07 -7.38616e-07 -1.92550e-02 4.00000e-01
8.75e-01 1.50062e-01 1.50708e-01 6.99230e-01 1.08918e+05 3.19543e+02 -8.33804e-07 -7.42534e-07 -1.93000e-02 4.00000e-01
8.33e-01 1.50392e-01 1.51761e-01 6.97847e-01 1.08555e+05 3.19070e+02 -8.36710e-07 -7.50293e-07 -1.93308e-02 4.00000e-01
7.92e-01 1.51018e-01 1.53611e-01 6.95371e-01 1.08191e+05 3.18308e+02 -8.41801e-07 -7.64170e-07 -1.93413e-02 4.00000e-01
7.50e-01 1.52041e-01 1.56555e-01 6.91404e-01 1.07825e+05 3.17171e+02 -8.49999e-07 -7.86922e-07 -1.93251e-02 4.00000e-01
7.08e-01 1.53557e-01 1.60879e-01 6.85564e-01 1.07457e+05 3.15597e+02 -8.62261e-07 -8.21467e-07 -1.92771e-02 4.00000e-01
6.67e-01 1.55639e-01 1.66806e-01 6.77555e-01 1.07086e+05 3.13556e+02 -8.79417e-07 -8.70365e-07 -1.91949e-02 4.00000e-01
6.25e-01 1.58319e-01 1.74435e-01 6.67246e-01 1.06711e+05 3.11070e+02 -9.02007e-07 -9.35198e-07 -1.90798e-02 4.00000e-01
5.83e-01 1.61573e-01 1.83691e-01 6.54736e-01 1.06331e+05 3.08216e+02 -9.30131e-07 -1.01599e-06 -1.89381e-02 4.00000e-01
5.42e-01 1.65319e-01 1.94298e-01 6.40383e-01 1.05945e+05 3.05118e+02 -9.63359e-07 -1.11083e-06 -1.87804e-02 4.00000e-01
5.00e-01 1.69416e-01 2.05792e-01 6.24793e-01 1.05550e+05 3.01932e+02 -1.00074e-06 -1.21597e-06 -1.86205e-02 4.00000e-01
4.58e-01 1.73678e-01 2.17577e-01 6.08746e-01 1.05146e+05 2.98820e+02 -1.04086e-06 -1.32624e-06 -1.84735e-02 4.00000e-01
4.17e-01 1.77898e-01 2.29015e-01 5.93088e-01 1.04730e+05 2.95926e+02 -1.08200e-06 -1.43589e-06 -1.83527e-02 4.00000e-01
3.75e-01 1.81872e-01 2.39529e-01 5.78599e-01 1.04302e+05 2.93362e+02 -1.12233e-06 -1.53955e-06 -1.82677e-02 4.00000e-01
3.33e-01 1.85428e-01 2.48693e-01 5.65879e-01 1.03862e+05 2.91190e+02 -1.16011e-06 -1.63297e-06 -1.82226e-02 4.00000e-01
2.92e-01 1.88447e-01 2.56276e-01 5.55276e-01 1.03409e+05 2.89431e+02 -1.19395e-06 -1.71350e-06 -1.82162e-02 4.00000e-01
2.50e-01 1.90878e-01 2.62246e-01 5.46875e-01 1.02945e+05 2.88066e+02 -1.22300e-06 -1.78011e-06 -1.82432e-02 4.00000e-01
2.08e-01 1.92738e-01 2.66725e-01 5.40537e-01 1.02471e+05 2.87049e+02 -1.24708e-06 -1.83322e-06 -1.82958e-02 4.00000e-01
1.67e-01 1.94095e-01 2.69933e-01 5.35972e-01 1.01988e+05 2.86321e+02 -1.26663e-06 -1.87431e-06 -1.83664e-02 4.00000e-01
1.25e-01 1.95050e-01 2.72130e-01 5.32820e-01 1.01499e+05 2.85818e+02 -1.28254e-06 -1.90546e-06 -1.84482e-02 4.00000e-01
8.33e-02 1.95713e-01 2.73573e-01 5.30714e-01 1.01004e+05 2.85484e+02 -1.29599e-06 -1.92904e-06 -1.85363e-02 4.00000e-01
4.17e-02 1.96175e-01 2.74462e-01 5.29363e-01 1.00504e+05 2.85278e+02 -1.30841e-06 -1.94770e-06 -1.86288e-02 4.00000e-01
0.00e+00 1.96175e-01 2.74462e-01 5.29363e-01 1.00000e+05 2.85278e+02 -1.31360e-06 -1.95543e-06 -1.87027e-02 4.00000e-01
