TITLE =  "Filtration in time=5000.00" 
VARIABLES = "Y","S_w","S_n","S_g","P_w","T","uw_y","un_y","ug_y","porosity" 
ZONE T = "BIG ZONE", K=25, F = POINT
1.00e+00 1.50000e-01 1.50000e-01 7.00000e-01 1.10000e+05 3.20000e+02 -5.65925e-07 -5.01166e-07 -1.30315e-02 4.00000e-01
9.58e-01 1.59274e-01 1.73113e-01 6.67612e-01 1.09756e+05 3.12752e+02 -6.25928e-07 -6.40875e-07 -1.25435e-02 4.00000e-01
9.17e-01 1.75481e-01 2.10424e-01 6.14095e-01 1.09502e+05 3.03115e+02 -7.64564e-07 -9.06415e-07 -1.19264e-02 4.00000e-01
8.75e-01 1.93209e-01 2.46205e-01 5.60586e-01 1.09228e+05 2.94830e+02 -9.55663e-07 -1.18491e-06 -1.15066e-02 4.00000e-01
8.33e-01 2.08501e-01 2.70605e-01 5.20894e-01 1.08925e+05 2.89515e+02 -1.17543e-06 -1.39962e-06 -1.13814e-02 4.00000e-01
7.92e-01 2.20421e-01 2.83328e-01 4.96251e-01 1.08592e+05 2.86761e+02 -1.41006e-06 -1.53290e-06 -1.14434e-02 4.00000e-01
7.50e-01 2.29760e-01 2.88431e-01 4.81810e-01 1.08236e+05 2.85557e+02 -1.65094e-06 -1.59840e-06 -1.15540e-02 4.00000e-01
7.08e-01 2.37512e-01 2.89761e-01 4.72727e-01 1.07864e+05 2.85105e+02 -1.89421e-06 -1.62253e-06 -1.16482e-02 4.00000e-01
6.67e-01 2.44287e-01 2.89680e-01 4.66033e-01 1.07479e+05 2.84963e+02 -2.13923e-06 -1.63020e-06 -1.17183e-02 4.00000e-01
6.25e-01 2.50376e-01 2.89328e-01 4.60296e-01 1.07084e+05 2.84931e+02 -2.38650e-06 -1.63711e-06 -1.17736e-02 4.00000e-01
5.83e-01 2.55924e-01 2.89131e-01 4.54945e-01 1.06679e+05 2.84932e+02 -2.63678e-06 -1.64991e-06 -1.18229e-02 4.00000e-01
5.42e-01 2.61029e-01 2.89166e-01 4.49805e-01 1.06265e+05 2.84941e+02 -2.89077e-06 -1.66958e-06 -1.18713e-02 4.00000e-01
5.00e-01 2.65766e-01 2.89381e-01 4.44853e-01 1.05841e+05 2.84950e+02 -3.14889e-06 -1.69461e-06 -1.19210e-02 4.00000e-01
4.58e-01 2.70191e-01 2.89702e-01 4.40108e-01 1.05407e+05 2.84957e+02 -3.41121e-06 -1.72300e-06 -1.19728e-02 4.00000e-01
4.17e-01 2.74347e-01 2.90066e-01 4.35588e-01 1.04963e+05 2.84963e+02 -3.67752e-06 -1.75306e-06 -1.20267e-02 4.00000e-01
3.75e-01 2.78265e-01 2.90435e-01 4.31301e-01 1.04509e+05 2.84968e+02 -3.94740e-06 -1.78368e-06 -1.20824e-02 4.00000e-01
3.33e-01 2.81968e-01 2.90789e-01 4.27244e-01 1.04046e+05 2.84972e+02 -4.22037e-06 -1.81423e-06 -1.21398e-02 4.00000e-01
2.92e-01 2.85473e-01 2.91120e-01 4.23407e-01 1.03573e+05 2.84976e+02 -4.49595e-06 -1.84442e-06 -1.21987e-02 4.00000e-01
2.50e-01 2.88796e-01 2.91426e-01 4.19778e-01 1.03091e+05 2.84978e+02 -4.77367e-06 -1.87416e-06 -1.22591e-02 4.00000e-01
2.08e-01 2.91948e-01 2.91709e-01 4.16343e-01 1.02599e+05 2.84981e+02 -5.05317e-06 -1.90346e-06 -1.23210e-02 4.00000e-01
1.67e-01 2.94942e-01 2.91972e-01 4.13086e-01 1.02097e+05 2.84983e+02 -5.33408e-06 -1.93238e-06 -1.23843e-02 4.00000e-01
1.25e-01 2.97788e-01 2.92219e-01 4.09993e-01 1.01587e+05 2.84983e+02 -5.61612e-06 -1.96097e-06 -1.24491e-02 4.00000e-01
8.33e-02 3.00506e-01 2.92466e-01 4.07028e-01 1.01067e+05 2.84977e+02 -5.89879e-06 -1.98915e-06 -1.25147e-02 4.00000e-01
4.17e-02 3.03175e-01 2.92818e-01 4.04007e-01 1.00538e+05 2.84928e+02 -6.18041e-06 -2.01622e-06 -1.25768e-02 4.00000e-01
0.00e+00 3.03175e-01 2.92818e-01 4.04007e-01 1.00000e+05 2.84928e+02 -6.23521e-06 -2.03410e-06 -1.26883e-02 4.00000e-01
