TITLE =  "Filtration in time=2000.00" 
VARIABLES = "Y","S_w","S_n","S_g","P_w","T","uw_y","un_y","ug_y","porosity" 
ZONE T = "BIG ZONE", K=25, F = POINT
1.00e+00 1.50000e-01 1.50000e-01 7.00000e-01 1.10000e+05 3.20000e+02 -4.12138e-07 -3.64978e-07 -9.49030e-03 4.00000e-01
9.58e-01 1.94929e-01 2.25823e-01 5.79248e-01 1.09822e+05 3.00881e+02 -7.79038e-07 -7.61249e-07 -8.15576e-03 4.00000e-01
9.17e-01 2.31952e-01 2.72543e-01 4.95506e-01 1.09606e+05 2.89912e+02 -1.29009e-06 -1.03876e-06 -7.86349e-03 4.00000e-01
8.75e-01 2.56126e-01 2.87854e-01 4.56020e-01 1.09344e+05 2.86114e+02 -1.87513e-06 -1.17094e-06 -8.05385e-03 4.00000e-01
8.33e-01 2.72675e-01 2.91142e-01 4.36182e-01 1.09049e+05 2.85136e+02 -2.47439e-06 -1.23078e-06 -8.23017e-03 4.00000e-01
7.92e-01 2.85408e-01 2.91861e-01 4.22731e-01 1.08731e+05 2.84947e+02 -3.06790e-06 -1.27201e-06 -8.31685e-03 4.00000e-01
7.50e-01 2.96002e-01 2.92377e-01 4.11621e-01 1.08396e+05 2.84932e+02 -3.66491e-06 -1.31413e-06 -8.36847e-03 4.00000e-01
7.08e-01 3.05168e-01 2.92946e-01 4.01886e-01 1.08043e+05 2.84945e+02 -4.27060e-06 -1.35800e-06 -8.41253e-03 4.00000e-01
6.67e-01 3.13259e-01 2.93498e-01 3.93243e-01 1.07675e+05 2.84958e+02 -4.88391e-06 -1.40134e-06 -8.45551e-03 4.00000e-01
6.25e-01 3.20483e-01 2.93992e-01 3.85525e-01 1.07292e+05 2.84968e+02 -5.50185e-06 -1.44297e-06 -8.49822e-03 4.00000e-01
5.83e-01 3.26980e-01 2.94425e-01 3.78595e-01 1.06893e+05 2.84975e+02 -6.12157e-06 -1.48269e-06 -8.54075e-03 4.00000e-01
5.42e-01 3.32859e-01 2.94807e-01 3.72334e-01 1.06481e+05 2.84980e+02 -6.74072e-06 -1.52073e-06 -8.58324e-03 4.00000e-01
5.00e-01 3.38203e-01 2.95149e-01 3.66648e-01 1.06055e+05 2.84984e+02 -7.35745e-06 -1.55738e-06 -8.62590e-03 4.00000e-01
4.58e-01 3.43079e-01 2.95460e-01 3.61460e-01 1.05615e+05 2.84987e+02 -7.97021e-06 -1.59290e-06 -8.66894e-03 4.00000e-01
4.17e-01 3.47543e-01 2.95749e-01 3.56708e-01 1.05163e+05 2.84989e+02 -8.57767e-06 -1.62749e-06 -8.71255e-03 4.00000e-01
3.75e-01 3.51639e-01 2.96019e-01 3.52342e-01 1.04698e+05 2.84991e+02 -9.17856e-06 -1.66130e-06 -8.75688e-03 4.00000e-01
3.33e-01 3.55405e-01 2.96275e-01 3.48321e-01 1.04220e+05 2.84993e+02 -9.77168e-06 -1.69447e-06 -8.80206e-03 4.00000e-01
2.92e-01 3.58871e-01 2.96518e-01 3.44611e-01 1.03731e+05 2.84994e+02 -1.03558e-05 -1.72706e-06 -8.84820e-03 4.00000e-01
2.50e-01 3.62062e-01 2.96752e-01 3.41185e-01 1.03231e+05 2.84995e+02 -1.09298e-05 -1.75917e-06 -8.89538e-03 4.00000e-01
2.08e-01 3.65001e-01 2.96978e-01 3.38020e-01 1.02719e+05 2.84995e+02 -1.14922e-05 -1.79083e-06 -8.94369e-03 4.00000e-01
1.67e-01 3.67705e-01 2.97198e-01 3.35098e-01 1.02196e+05 2.84996e+02 -1.20419e-05 -1.82207e-06 -8.99320e-03 4.00000e-01
1.25e-01 3.70188e-01 2.97411e-01 3.32401e-01 1.01662e+05 2.84996e+02 -1.25772e-05 -1.85293e-06 -9.04396e-03 4.00000e-01
8.33e-02 3.72464e-01 2.97620e-01 3.29916e-01 1.01118e+05 2.84996e+02 -1.30968e-05 -1.88339e-06 -9.09600e-03 4.00000e-01
4.17e-02 3.74568e-01 2.97841e-01 3.27591e-01 1.00564e+05 2.84983e+02 -1.35974e-05 -1.91271e-06 -9.14834e-03 4.00000e-01
0.00e+00 3.74568e-01 2.97841e-01 3.27591e-01 1.00000e+05 2.84983e+02 -1.37184e-05 -1.92973e-06 -9.22974e-03 4.00000e-01
