TITLE =  "Filtration in time=100.00" 
VARIABLES = "X","Y","S_w","S_n","S_g","P_w","T","uw_x","uw_y","un_x","un_y","ug_x","ug_y","porosity" 
ZONE T = "BIG ZONE", K=20,J=20, F = POINT
0.00e+00 1.00e+00 6.00000e-01 1.50000e-01 2.50000e-01 1.10000e+05 3.20000e+02 1.50339e-04 -1.22550e-04 2.68305e-07 -1.86933e-07 4.70715e-03 -5.01911e-06 4.00000e-01
0.00e+00 9.47e-01 6.00000e-01 1.50000e-01 2.50000e-01 1.10000e+05 3.20000e+02 1.50339e-04 -1.22550e-04 2.68305e-07 -1.86933e-07 4.70715e-03 -5.01911e-06 4.00000e-01
0.00e+00 8.95e-01 6.00000e-01 1.50000e-01 2.50000e-01 1.10000e+05 3.20000e+02 1.52434e-04 -1.22550e-04 2.72044e-07 -1.86933e-07 4.77275e-03 -5.01911e-06 4.00000e-01
0.00e+00 8.42e-01 6.00000e-01 1.50000e-01 2.50000e-01 1.10000e+05 3.20000e+02 1.49791e-04 -1.22550e-04 2.67327e-07 -1.86933e-07 4.68999e-03 -5.01911e-06 4.00000e-01
0.00e+00 7.89e-01 6.00000e-01 1.50000e-01 2.50000e-01 1.10000e+05 3.20000e+02 1.53167e-04 -1.22550e-04 2.73352e-07 -1.86933e-07 4.79569e-03 -5.01911e-06 4.00000e-01
0.00e+00 7.37e-01 6.00000e-01 1.50000e-01 2.50000e-01 1.10000e+05 3.20000e+02 1.57618e-04 -1.22550e-04 2.81295e-07 -1.86933e-07 4.93504e-03 -5.01911e-06 4.00000e-01
0.00e+00 6.84e-01 6.00000e-01 1.50000e-01 2.50000e-01 1.10000e+05 3.20000e+02 1.64181e-04 -1.22550e-04 2.93008e-07 -1.86933e-07 5.14054e-03 -5.01911e-06 4.00000e-01
0.00e+00 6.32e-01 6.00000e-01 1.50000e-01 2.50000e-01 1.10000e+05 3.20000e+02 1.90214e-04 -1.22550e-04 3.39468e-07 -1.86933e-07 5.95562e-03 -5.01911e-06 4.00000e-01
0.00e+00 5.79e-01 6.00000e-01 1.50000e-01 2.50000e-01 1.10000e+05 3.20000e+02 2.49743e-04 -1.22550e-04 4.45707e-07 -1.86933e-07 7.81949e-03 -5.01911e-06 4.00000e-01
0.00e+00 5.26e-01 6.00000e-01 1.50000e-01 2.50000e-01 1.10000e+05 3.20000e+02 4.12413e-04 -5.49837e-04 7.36019e-07 -9.49498e-07 1.29127e-02 -1.33835e-02 4.00000e-01
0.00e+00 4.74e-01 5.06844e-01 3.53081e-01 1.40075e-01 1.06385e+05 3.01888e+02 -0.00000e+00 -2.97832e-04 -0.00000e+00 -2.83867e-05 -0.00000e+00 -7.42896e-03 4.00000e-01
0.00e+00 4.21e-01 4.68750e-01 4.31959e-01 9.92901e-02 1.04470e+05 2.90162e+02 -0.00000e+00 -1.32670e-04 -0.00000e+00 -3.23527e-05 -0.00000e+00 -3.08007e-03 4.00000e-01
0.00e+00 3.68e-01 2.54265e-01 4.97333e-01 2.48402e-01 1.02174e+05 2.85769e+02 -0.00000e+00 -9.25517e-06 -0.00000e+00 -4.86393e-05 -0.00000e+00 -1.01798e-02 4.00000e-01
0.00e+00 3.16e-01 1.01512e-01 4.35489e-01 4.62999e-01 1.01896e+05 2.85091e+02 -0.00000e+00 -1.50111e-07 -0.00000e+00 -1.36284e-05 -0.00000e+00 -4.23093e-03 4.00000e-01
0.00e+00 2.63e-01 9.98980e-02 4.62417e-01 4.37685e-01 1.01816e+05 2.84969e+02 -0.00000e+00 -1.20073e-07 -0.00000e+00 -1.41199e-05 -0.00000e+00 -1.59252e-03 4.00000e-01
0.00e+00 2.11e-01 9.99347e-02 4.50302e-01 4.49763e-01 1.01748e+05 2.85000e+02 -0.00000e+00 -1.16982e-07 -0.00000e+00 -1.23859e-05 -0.00000e+00 -1.29712e-03 4.00000e-01
0.00e+00 1.58e-01 9.99277e-02 4.33629e-01 4.66443e-01 1.01701e+05 2.85037e+02 -0.00000e+00 -1.13223e-07 -0.00000e+00 -1.03591e-05 -0.00000e+00 -9.25927e-04 4.00000e-01
0.00e+00 1.05e-01 9.99184e-02 4.70233e-01 4.29849e-01 1.01672e+05 2.84952e+02 -0.00000e+00 -1.09775e-07 -0.00000e+00 -1.35409e-05 -0.00000e+00 -4.93570e-04 4.00000e-01
0.00e+00 5.26e-02 9.99314e-02 4.34888e-01 4.65180e-01 1.01655e+05 2.85024e+02 -0.00000e+00 -1.07096e-07 -0.00000e+00 -9.81125e-06 -0.00000e+00 -2.14419e-04 4.00000e-01
0.00e+00 0.00e+00 9.99314e-02 4.34888e-01 4.65180e-01 1.01655e+05 2.85024e+02 -0.00000e+00 -1.05395e-07 -0.00000e+00 -9.62856e-06 -0.00000e+00 -1.66852e-05 4.00000e-01
5.26e-02 1.00e+00 5.13759e-01 3.26923e-01 1.59317e-01 1.09364e+05 3.07589e+02 1.06365e-04 -5.56610e-05 8.10301e-06 -3.62300e-06 3.32588e-03 -2.35542e-06 4.00000e-01
5.26e-02 9.47e-01 5.13759e-01 3.26923e-01 1.59317e-01 1.09364e+05 3.07589e+02 1.06365e-04 -5.61369e-05 8.10301e-06 -3.65925e-06 3.32588e-03 -1.72365e-05 4.00000e-01
5.26e-02 8.95e-01 5.18371e-01 3.18155e-01 1.63474e-01 1.09355e+05 3.07934e+02 1.10352e-04 -5.77579e-05 7.25272e-06 -3.24214e-06 3.47524e-03 1.61430e-06 4.00000e-01
5.26e-02 8.42e-01 5.14120e-01 3.27871e-01 1.58009e-01 1.09366e+05 3.07426e+02 1.06043e-04 -5.57899e-05 8.11486e-06 -3.64961e-06 3.26949e-03 -7.45031e-06 4.00000e-01
5.26e-02 7.89e-01 5.15303e-01 3.23745e-01 1.60952e-01 1.09352e+05 3.07782e+02 1.08887e-04 -5.82879e-05 7.88799e-06 -3.62678e-06 3.41692e-03 -5.90142e-05 4.00000e-01
5.26e-02 7.37e-01 5.18030e-01 3.18845e-01 1.63125e-01 1.09333e+05 3.08032e+02 1.12780e-04 -6.04603e-05 7.52072e-06 -3.47002e-06 3.53875e-03 -8.40595e-05 4.00000e-01
5.26e-02 6.84e-01 5.14989e-01 3.25007e-01 1.60004e-01 1.09305e+05 3.07894e+02 1.13513e-04 -6.39964e-05 8.40344e-06 -4.12883e-06 3.52291e-03 -2.35564e-04 4.00000e-01
5.26e-02 6.32e-01 5.19576e-01 3.13580e-01 1.66844e-01 1.09195e+05 3.09021e+02 1.29115e-04 -8.04377e-05 8.11357e-06 -4.50897e-06 4.08804e-03 -6.61723e-04 4.00000e-01
5.26e-02 5.79e-01 5.23732e-01 3.03264e-01 1.73003e-01 1.08944e+05 3.10624e+02 1.57549e-04 -1.20625e-04 8.61972e-06 -6.09507e-06 5.00507e-03 -1.82527e-03 4.00000e-01
5.26e-02 5.26e-01 5.33574e-01 2.78065e-01 1.88360e-01 1.08255e+05 3.14111e+02 2.32554e-04 -2.50053e-04 8.82090e-06 -9.08523e-06 7.51141e-03 -5.75184e-03 4.00000e-01
5.26e-02 4.74e-01 5.06844e-01 3.53081e-01 1.40075e-01 1.06385e+05 3.01888e+02 5.18143e-05 -2.18688e-04 5.05565e-06 -2.06644e-05 1.53398e-03 -5.08588e-03 4.00000e-01
5.26e-02 4.21e-01 4.68751e-01 4.31959e-01 9.92902e-02 1.04470e+05 2.90162e+02 2.88879e-05 -1.32670e-04 7.25621e-06 -3.23527e-05 8.35121e-04 -3.08007e-03 4.00000e-01
5.26e-02 3.68e-01 2.54268e-01 4.97333e-01 2.48399e-01 1.02174e+05 2.85769e+02 4.29440e-07 -9.25517e-06 2.35746e-06 -4.86393e-05 6.61573e-04 -1.01798e-02 4.00000e-01
5.26e-02 3.16e-01 1.01512e-01 4.35489e-01 4.62999e-01 1.01896e+05 2.85091e+02 1.48371e-09 -1.50111e-07 1.51475e-07 -1.36284e-05 1.61767e-04 -4.23093e-03 4.00000e-01
5.26e-02 2.63e-01 9.98980e-02 4.62417e-01 4.37685e-01 1.01816e+05 2.84969e+02 2.06374e-09 -1.20073e-07 2.79112e-07 -1.41199e-05 2.17058e-04 -1.59252e-03 4.00000e-01
5.26e-02 2.11e-01 9.99347e-02 4.50302e-01 4.49763e-01 1.01748e+05 2.85000e+02 1.81222e-09 -1.16982e-07 2.21644e-07 -1.23859e-05 1.99128e-04 -1.29712e-03 4.00000e-01
5.26e-02 1.58e-01 9.99277e-02 4.33629e-01 4.66443e-01 1.01701e+05 2.85037e+02 1.49204e-09 -1.13223e-07 1.58537e-07 -1.03591e-05 1.74137e-04 -9.25927e-04 4.00000e-01
5.26e-02 1.05e-01 9.99184e-02 4.70233e-01 4.29849e-01 1.01672e+05 2.84952e+02 1.74319e-09 -1.09775e-07 2.50852e-07 -1.35409e-05 1.77779e-04 -4.93570e-04 4.00000e-01
5.26e-02 5.26e-02 9.99314e-02 4.34888e-01 4.65180e-01 1.01655e+05 2.85024e+02 1.49658e-09 -1.07096e-07 1.60703e-07 -9.81125e-06 1.73936e-04 -2.14419e-04 4.00000e-01
5.26e-02 0.00e+00 9.99314e-02 4.34888e-01 4.65180e-01 1.01655e+05 2.85024e+02 1.49658e-09 -1.05395e-07 1.60703e-07 -9.62856e-06 1.73936e-04 -1.66852e-05 4.00000e-01
1.05e-01 1.00e+00 4.79852e-01 4.02467e-01 1.17681e-01 1.08019e+05 2.94248e+02 1.09776e-04 -3.20111e-05 2.00910e-05 -5.00202e-06 3.52287e-03 -1.43628e-06 4.00000e-01
1.05e-01 9.47e-01 4.79852e-01 4.02467e-01 1.17681e-01 1.08019e+05 2.94248e+02 1.09776e-04 -3.18630e-05 2.00910e-05 -4.97492e-06 3.52287e-03 3.31594e-06 4.00000e-01
1.05e-01 8.95e-01 4.81912e-01 3.98020e-01 1.20068e-01 1.08024e+05 2.94616e+02 1.11831e-04 -3.26808e-05 1.93153e-05 -4.81557e-06 3.62844e-03 3.31977e-06 4.00000e-01
1.05e-01 8.42e-01 4.76456e-01 4.08616e-01 1.14928e-01 1.08024e+05 2.94028e+02 1.07262e-04 -3.16849e-05 2.14982e-05 -5.44148e-06 3.40201e-03 -2.24672e-05 4.00000e-01
1.05e-01 7.89e-01 4.79943e-01 4.01212e-01 1.18846e-01 1.08002e+05 2.94461e+02 1.10779e-04 -3.35932e-05 2.00897e-05 -5.23785e-06 3.59548e-03 -4.61775e-05 4.00000e-01
1.05e-01 7.37e-01 4.81069e-01 3.99410e-01 1.19521e-01 1.07980e+05 2.94666e+02 1.12348e-04 -3.53429e-05 1.98681e-05 -5.40545e-06 3.63217e-03 -8.80237e-05 4.00000e-01
1.05e-01 6.84e-01 4.78096e-01 4.05084e-01 1.16821e-01 1.07917e+05 2.94410e+02 1.10723e-04 -3.85973e-05 2.12445e-05 -6.51528e-06 3.53524e-03 -2.20740e-04 4.00000e-01
1.05e-01 6.32e-01 4.84081e-01 3.92906e-01 1.23013e-01 1.07755e+05 2.95434e+02 1.19002e-04 -5.04793e-05 1.94205e-05 -7.42390e-06 3.88087e-03 -5.36160e-04 4.00000e-01
1.05e-01 5.79e-01 4.86267e-01 3.88047e-01 1.25686e-01 1.07419e+05 2.96368e+02 1.25172e-04 -7.31081e-05 1.93896e-05 -1.05196e-05 4.07080e-03 -1.22534e-03 4.00000e-01
1.05e-01 5.26e-01 4.92408e-01 3.72671e-01 1.34921e-01 1.06657e+05 2.98974e+02 1.38102e-04 -1.22720e-04 1.80911e-05 -1.53150e-05 4.56032e-03 -2.74768e-03 4.00000e-01
1.05e-01 4.74e-01 4.70320e-01 4.24849e-01 1.04831e-01 1.05243e+05 2.90450e+02 8.37550e-05 -1.12678e-04 1.94629e-05 -2.52681e-05 2.62084e-03 -2.69103e-03 4.00000e-01
1.05e-01 4.21e-01 3.69962e-01 5.16325e-01 1.13713e-01 1.03328e+05 2.86203e+02 2.28952e-05 -4.10630e-05 3.17275e-05 -5.48591e-05 2.25837e-03 -3.07110e-03 4.00000e-01
1.05e-01 3.68e-01 1.13398e-01 4.60760e-01 4.25841e-01 1.02007e+05 2.85197e+02 3.69975e-08 -3.91478e-07 3.13221e-06 -3.10836e-05 2.39053e-03 -1.47671e-02 4.00000e-01
1.05e-01 3.16e-01 9.99101e-02 4.58531e-01 4.41559e-01 1.01882e+05 2.84971e+02 6.05098e-09 -1.26619e-07 7.92496e-07 -1.45301e-05 6.45718e-04 -2.30868e-03 4.00000e-01
1.05e-01 2.63e-01 9.99312e-02 4.56686e-01 4.43383e-01 1.01795e+05 2.84992e+02 6.22291e-09 -1.20716e-07 8.02406e-07 -1.35408e-05 6.67710e-04 -1.67179e-03 4.00000e-01
1.05e-01 2.11e-01 9.99339e-02 4.31008e-01 4.69058e-01 1.01730e+05 2.85051e+02 5.09984e-09 -1.16610e-07 5.29706e-07 -1.04770e-05 6.00396e-04 -1.32403e-03 4.00000e-01
1.05e-01 1.58e-01 9.99085e-02 4.66744e-01 4.33348e-01 1.01687e+05 2.84944e+02 4.98351e-09 -1.12707e-07 6.97494e-07 -1.35816e-05 5.15648e-04 -8.10914e-04 4.00000e-01
1.05e-01 1.05e-01 9.99385e-02 4.43196e-01 4.56866e-01 1.01655e+05 2.85031e+02 4.87447e-09 -1.10163e-07 5.61812e-07 -1.08834e-05 5.49281e-04 -5.47823e-04 4.00000e-01
1.05e-01 5.26e-02 9.99265e-02 4.39272e-01 4.60801e-01 1.01640e+05 2.85008e+02 4.44492e-09 -1.06764e-07 4.95543e-07 -1.01505e-05 5.08832e-04 -1.82225e-04 4.00000e-01
1.05e-01 0.00e+00 9.99265e-02 4.39272e-01 4.60801e-01 1.01640e+05 2.85008e+02 4.44492e-09 -1.05315e-07 4.95543e-07 -9.98900e-06 5.08832e-04 -1.64206e-05 4.00000e-01
1.58e-01 1.00e+00 4.18376e-01 4.83492e-01 9.81324e-02 1.05811e+05 2.87412e+02 8.13238e-05 -1.60038e-05 5.15928e-05 -8.65796e-06 3.78743e-03 -1.04607e-06 4.00000e-01
1.58e-01 9.47e-01 4.18377e-01 4.83491e-01 9.81322e-02 1.05811e+05 2.87412e+02 8.13238e-05 -1.57751e-05 5.15928e-05 -8.51290e-06 3.78743e-03 9.60251e-06 4.00000e-01
1.58e-01 8.95e-01 4.21614e-01 4.80456e-01 9.79295e-02 1.05826e+05 2.87512e+02 8.42121e-05 -1.69369e-05 5.04066e-05 -8.68344e-06 3.78802e-03 -2.05897e-05 4.00000e-01
1.58e-01 8.42e-01 4.12449e-01 4.90464e-01 9.70874e-02 1.05784e+05 2.87350e+02 7.77696e-05 -1.57180e-05 5.56503e-05 -9.64745e-06 3.74318e-03 -2.67632e-05 4.00000e-01
1.58e-01 7.89e-01 4.20194e-01 4.81852e-01 9.79538e-02 1.05790e+05 2.87477e+02 8.32604e-05 -1.65043e-05 5.11606e-05 -8.66761e-06 3.79683e-03 -1.09701e-05 4.00000e-01
1.58e-01 7.37e-01 4.22194e-01 4.80346e-01 9.74602e-02 1.05770e+05 2.87549e+02 8.51331e-05 -1.81963e-05 5.06315e-05 -9.36781e-06 3.77222e-03 -7.16567e-05 4.00000e-01
1.58e-01 6.84e-01 4.17921e-01 4.85247e-01 9.68326e-02 1.05690e+05 2.87479e+02 8.16660e-05 -1.89305e-05 5.28967e-05 -1.07373e-05 3.71608e-03 -1.35432e-04 4.00000e-01
1.58e-01 6.32e-01 4.29020e-01 4.72375e-01 9.86051e-02 1.05579e+05 2.87784e+02 8.88733e-05 -2.45687e-05 4.61478e-05 -1.14022e-05 3.76996e-03 -2.91988e-04 4.00000e-01
1.58e-01 5.79e-01 4.30899e-01 4.70153e-01 9.89476e-02 1.05290e+05 2.88001e+02 8.73316e-05 -3.45225e-05 4.37877e-05 -1.59699e-05 3.64331e-03 -6.85659e-04 4.00000e-01
1.58e-01 5.26e-01 4.35447e-01 4.62867e-01 1.01686e-01 1.04641e+05 2.88596e+02 8.14524e-05 -5.89452e-05 3.69451e-05 -2.54520e-05 3.37359e-03 -1.64904e-03 4.00000e-01
1.58e-01 4.74e-01 3.29794e-01 5.31265e-01 1.38941e-01 1.03141e+05 2.86031e+02 2.03179e-05 -2.29161e-05 5.10390e-05 -5.51014e-05 4.36495e-03 -3.50595e-03 4.00000e-01
1.58e-01 4.21e-01 1.14208e-01 4.80439e-01 4.05353e-01 1.02089e+05 2.85218e+02 2.22725e-07 -3.61817e-07 2.15318e-05 -3.25685e-05 1.28984e-02 -1.12787e-02 4.00000e-01
1.58e-01 3.68e-01 9.99101e-02 4.54370e-01 4.45719e-01 1.01940e+05 2.84990e+02 1.55178e-08 -1.30964e-07 1.96452e-06 -1.45941e-05 1.68127e-03 -2.80658e-03 4.00000e-01
1.58e-01 3.16e-01 9.99211e-02 4.60423e-01 4.39656e-01 1.01836e+05 2.84976e+02 1.18489e-08 -1.24030e-07 1.57556e-06 -1.44065e-05 1.25444e-03 -2.01012e-03 4.00000e-01
1.58e-01 2.63e-01 9.99438e-02 4.30994e-01 4.69063e-01 1.01755e+05 2.85057e+02 9.67720e-09 -1.19661e-07 1.00475e-06 -1.07889e-05 1.13866e-03 -1.67535e-03 4.00000e-01
1.58e-01 2.11e-01 9.98995e-02 4.61939e-01 4.38162e-01 1.01698e+05 2.84953e+02 8.69812e-09 -1.15420e-07 1.17148e-06 -1.34347e-05 9.17039e-04 -1.11195e-03 4.00000e-01
1.58e-01 1.58e-01 9.99417e-02 4.50773e-01 4.49285e-01 1.01652e+05 2.85010e+02 8.43154e-09 -1.12944e-07 1.03517e-06 -1.19359e-05 9.24217e-04 -8.44825e-04 4.00000e-01
1.58e-01 1.05e-01 9.99303e-02 4.34022e-01 4.66047e-01 1.01624e+05 2.85038e+02 7.58424e-09 -1.09600e-07 8.08538e-07 -1.00067e-05 8.83797e-04 -5.01388e-04 4.00000e-01
1.58e-01 5.26e-02 9.99194e-02 4.69684e-01 4.30396e-01 1.01611e+05 2.84958e+02 7.69958e-09 -1.06374e-07 1.10320e-06 -1.29940e-05 7.86753e-04 -1.44794e-04 4.00000e-01
1.58e-01 0.00e+00 9.99194e-02 4.69684e-01 4.30396e-01 1.01611e+05 2.84958e+02 7.69958e-09 -1.05101e-07 1.10320e-06 -1.28115e-05 7.86753e-04 -1.46259e-05 4.00000e-01
2.11e-01 1.00e+00 1.68988e-01 5.43794e-01 2.87218e-01 1.02760e+05 2.85304e+02 2.15803e-06 -6.40056e-07 7.96958e-05 -2.01224e-05 1.78711e-02 -7.28774e-06 4.00000e-01
2.11e-01 9.47e-01 1.68990e-01 5.43795e-01 2.87215e-01 1.02760e+05 2.85304e+02 2.15803e-06 -6.50893e-07 7.96958e-05 -2.05226e-05 1.78711e-02 -9.70316e-05 4.00000e-01
2.11e-01 8.95e-01 1.77081e-01 5.22496e-01 3.00423e-01 1.02743e+05 2.85405e+02 2.55327e-06 -7.81097e-07 6.78730e-05 -1.77834e-05 1.94363e-02 -2.14555e-04 4.00000e-01
2.11e-01 8.42e-01 1.63704e-01 5.32585e-01 3.03711e-01 1.02723e+05 2.85318e+02 1.92878e-06 -5.91878e-07 7.39550e-05 -1.94195e-05 1.96536e-02 -1.86947e-04 4.00000e-01
2.11e-01 7.89e-01 1.75928e-01 5.37231e-01 2.86841e-01 1.02711e+05 2.85343e+02 2.49725e-06 -7.71342e-07 7.57338e-05 -2.00745e-05 1.79494e-02 -2.63825e-04 4.00000e-01
2.11e-01 7.37e-01 1.81169e-01 5.23635e-01 2.95196e-01 1.02673e+05 2.85420e+02 2.77797e-06 -8.82042e-07 6.83731e-05 -1.87232e-05 1.89456e-02 -4.60047e-04 4.00000e-01
2.11e-01 6.84e-01 1.73730e-01 5.39071e-01 2.87199e-01 1.02627e+05 2.85338e+02 2.37816e-06 -7.79787e-07 7.66047e-05 -2.17426e-05 1.78889e-02 -5.73766e-04 4.00000e-01
2.11e-01 6.32e-01 1.92838e-01 5.32779e-01 2.74383e-01 1.02562e+05 2.85427e+02 3.36642e-06 -1.20368e-06 7.00582e-05 -2.19200e-05 1.62679e-02 -9.39046e-04 4.00000e-01
2.11e-01 5.79e-01 1.87881e-01 5.18387e-01 2.93731e-01 1.02430e+05 2.85461e+02 2.88189e-06 -1.19719e-06 5.95008e-05 -2.18737e-05 1.71690e-02 -1.62680e-03 4.00000e-01
2.11e-01 5.26e-01 1.70341e-01 5.13928e-01 3.15731e-01 1.02259e+05 2.85394e+02 1.69342e-06 -8.93629e-07 4.88149e-05 -2.29278e-05 1.60831e-02 -2.23052e-03 4.00000e-01
2.11e-01 4.74e-01 1.04273e-01 4.67766e-01 4.27961e-01 1.02063e+05 2.85126e+02 1.45498e-07 -1.58570e-07 1.76488e-05 -1.70239e-05 1.26523e-02 -3.16986e-03 4.00000e-01
2.11e-01 4.21e-01 9.99023e-02 4.48831e-01 4.51266e-01 1.01952e+05 2.85005e+02 2.59654e-08 -1.26514e-07 3.14081e-06 -1.34057e-05 2.87195e-03 -2.36997e-03 4.00000e-01
2.11e-01 3.68e-01 9.99070e-02 4.61900e-01 4.38193e-01 1.01854e+05 2.84966e+02 1.91002e-08 -1.24082e-07 2.57142e-06 -1.45949e-05 2.01249e-03 -2.01545e-03 4.00000e-01
2.11e-01 3.16e-01 9.99549e-02 4.33236e-01 4.66809e-01 1.01765e+05 2.85056e+02 1.53095e-08 -1.21295e-07 1.62007e-06 -1.11686e-05 1.78622e-03 -1.84763e-03 4.00000e-01
2.11e-01 2.63e-01 9.98945e-02 4.56673e-01 4.43432e-01 1.01701e+05 2.84966e+02 1.30088e-08 -1.17317e-07 1.67879e-06 -1.31172e-05 1.39920e-03 -1.33520e-03 4.00000e-01
2.11e-01 2.11e-01 9.99393e-02 4.56716e-01 4.43345e-01 1.01645e+05 2.84992e+02 1.23349e-08 -1.15154e-07 1.59043e-06 -1.28216e-05 1.32296e-03 -1.07219e-03 4.00000e-01
2.11e-01 1.58e-01 9.99387e-02 4.31197e-01 4.68864e-01 1.01604e+05 2.85050e+02 1.08987e-08 -1.12098e-07 1.13367e-06 -1.00222e-05 1.28200e-03 -7.91010e-04 4.00000e-01
2.11e-01 1.05e-01 9.99115e-02 4.66330e-01 4.33758e-01 1.01580e+05 2.84945e+02 1.06090e-08 -1.09011e-07 1.47975e-06 -1.30185e-05 1.09936e-03 -4.28267e-04 4.00000e-01
2.11e-01 5.26e-02 9.99460e-02 4.43798e-01 4.56256e-01 1.01565e+05 2.85028e+02 1.05667e-08 -1.07049e-07 1.22372e-06 -1.05743e-05 1.18784e-03 -1.94948e-04 4.00000e-01
2.11e-01 0.00e+00 9.99460e-02 4.43798e-01 4.56256e-01 1.01565e+05 2.85028e+02 1.05667e-08 -1.05459e-07 1.22372e-06 -1.03901e-05 1.18784e-03 -1.61342e-05 4.00000e-01
2.63e-01 1.00e+00 1.00126e-01 4.34240e-01 4.65634e-01 1.02327e+05 2.85059e+02 6.38897e-08 -1.06257e-07 6.77811e-06 -9.59432e-06 7.37886e-03 -1.68196e-05 4.00000e-01
2.63e-01 9.47e-01 1.00126e-01 4.34240e-01 4.65634e-01 1.02327e+05 2.85059e+02 6.38897e-08 -1.06318e-07 6.77811e-06 -9.60077e-06 7.37886e-03 -2.38468e-05 4.00000e-01
2.63e-01 8.95e-01 1.00054e-01 4.50979e-01 4.48967e-01 1.02326e+05 2.85013e+02 6.27161e-08 -1.07206e-07 7.68235e-06 -1.12019e-05 6.83953e-03 -1.66534e-04 4.00000e-01
2.63e-01 8.42e-01 1.00031e-01 4.67299e-01 4.32670e-01 1.02313e+05 2.84987e+02 6.27629e-08 -1.10221e-07 8.79058e-06 -1.32342e-05 6.43928e-03 -4.84422e-04 4.00000e-01
2.63e-01 7.89e-01 1.00136e-01 4.44967e-01 4.54897e-01 1.02281e+05 2.85069e+02 6.40167e-08 -1.12767e-07 7.44077e-06 -1.12666e-05 7.10309e-03 -7.30547e-04 4.00000e-01
2.63e-01 7.37e-01 1.00057e-01 4.60219e-01 4.39724e-01 1.02251e+05 2.84994e+02 6.31939e-08 -1.13924e-07 8.35021e-06 -1.29721e-05 6.65665e-03 -8.75034e-04 4.00000e-01
2.63e-01 6.84e-01 1.00111e-01 4.63899e-01 4.35989e-01 1.02201e+05 2.85013e+02 6.33166e-08 -1.17693e-07 8.60642e-06 -1.38508e-05 6.55665e-03 -1.22304e-03 4.00000e-01
2.63e-01 6.32e-01 1.00199e-01 4.45980e-01 4.53822e-01 1.02137e+05 2.85064e+02 6.16752e-08 -1.19952e-07 7.21306e-06 -1.21724e-05 6.80270e-03 -1.49645e-03 4.00000e-01
2.63e-01 5.79e-01 1.00066e-01 4.63849e-01 4.36086e-01 1.02071e+05 2.84984e+02 5.38827e-08 -1.20891e-07 7.32992e-06 -1.43017e-05 5.59679e-03 -1.58820e-03 4.00000e-01
2.63e-01 5.26e-01 1.00072e-01 4.51397e-01 4.48531e-01 1.01989e+05 2.85040e+02 4.29467e-08 -1.22340e-07 5.27761e-06 -1.30927e-05 4.66813e-03 -1.79437e-03 4.00000e-01
2.63e-01 4.74e-01 9.99062e-02 4.43322e-01 4.56772e-01 1.01912e+05 2.85016e+02 2.89646e-08 -1.21051e-07 3.34507e-06 -1.21670e-05 3.26818e-03 -1.79503e-03 4.00000e-01
2.63e-01 4.21e-01 9.98935e-02 4.61921e-01 4.38186e-01 1.01834e+05 2.84959e+02 2.47011e-08 -1.21275e-07 3.32730e-06 -1.42263e-05 2.60442e-03 -1.72869e-03 4.00000e-01
2.63e-01 3.68e-01 9.99641e-02 4.36953e-01 4.63083e-01 1.01752e+05 2.85049e+02 2.09654e-08 -1.20724e-07 2.28975e-06 -1.14643e-05 2.41315e-03 -1.75596e-03 4.00000e-01
2.63e-01 3.16e-01 9.98958e-02 4.51518e-01 4.48587e-01 1.01686e+05 2.84981e+02 1.76269e-08 -1.17850e-07 2.18020e-06 -1.26367e-05 1.93224e-03 -1.41258e-03 4.00000e-01
2.63e-01 2.63e-01 9.99319e-02 4.60651e-01 4.39417e-01 1.01627e+05 2.84976e+02 1.64539e-08 -1.16334e-07 2.19110e-06 -1.34008e-05 1.73974e-03 -1.19084e-03 4.00000e-01
2.63e-01 2.11e-01 9.99498e-02 4.30761e-01 4.69289e-01 1.01577e+05 2.85057e+02 1.45023e-08 -1.13870e-07 1.50235e-06 -1.01638e-05 1.70742e-03 -9.92927e-04 4.00000e-01
2.63e-01 1.58e-01 9.99059e-02 4.62019e-01 4.38075e-01 1.01546e+05 2.84953e+02 1.35811e-08 -1.10876e-07 1.82988e-06 -1.28267e-05 1.43108e-03 -6.31003e-04 4.00000e-01
2.63e-01 1.05e-01 9.99492e-02 4.50931e-01 4.49120e-01 1.01520e+05 2.85011e+02 1.33776e-08 -1.09233e-07 1.64414e-06 -1.14911e-05 1.46509e-03 -4.35340e-04 4.00000e-01
2.63e-01 5.26e-02 9.99347e-02 4.34342e-01 4.65723e-01 1.01508e+05 2.85022e+02 1.25122e-08 -1.06583e-07 1.33704e-06 -9.70802e-06 1.45701e-03 -1.55376e-04 4.00000e-01
2.63e-01 0.00e+00 9.99347e-02 4.34342e-01 4.65723e-01 1.01508e+05 2.85022e+02 1.25122e-08 -1.05392e-07 1.33704e-06 -9.58076e-06 1.45701e-03 -1.66940e-05 4.00000e-01
3.16e-01 1.00e+00 9.98719e-02 4.44845e-01 4.55284e-01 1.02139e+05 2.85009e+02 3.81383e-08 -1.05146e-07 4.46658e-06 -1.04795e-05 4.28579e-03 -1.61688e-05 4.00000e-01
3.16e-01 9.47e-01 9.98719e-02 4.44845e-01 4.55284e-01 1.02139e+05 2.85009e+02 3.81383e-08 -1.06020e-07 4.46658e-06 -1.05818e-05 4.28579e-03 -1.14314e-04 4.00000e-01
3.16e-01 8.95e-01 9.98859e-02 4.62104e-01 4.38010e-01 1.02130e+05 2.84963e+02 3.94799e-08 -1.08052e-07 5.32778e-06 -1.24699e-05 4.16027e-03 -3.34281e-04 4.00000e-01
3.16e-01 8.42e-01 9.99551e-02 4.38235e-01 4.61810e-01 1.02109e+05 2.85049e+02 3.95415e-08 -1.09816e-07 4.36763e-06 -1.03920e-05 4.53175e-03 -5.00436e-04 4.00000e-01
3.16e-01 7.89e-01 9.98625e-02 4.50559e-01 4.49579e-01 1.02089e+05 2.84981e+02 3.82610e-08 -1.10461e-07 4.70041e-06 -1.16479e-05 4.21458e-03 -6.16523e-04 4.00000e-01
3.16e-01 7.37e-01 9.99204e-02 4.58616e-01 4.41464e-01 1.02055e+05 2.84982e+02 3.85790e-08 -1.13257e-07 5.05517e-06 -1.27859e-05 4.11216e-03 -8.72530e-04 4.00000e-01
3.16e-01 6.84e-01 9.99439e-02 4.36402e-01 4.63654e-01 1.02010e+05 2.85047e+02 3.68601e-08 -1.14865e-07 4.00951e-06 -1.07834e-05 4.25479e-03 -1.09277e-03 4.00000e-01
3.16e-01 6.32e-01 9.98600e-02 4.56425e-01 4.43715e-01 1.01964e+05 2.84964e+02 3.46454e-08 -1.15762e-07 4.46726e-06 -1.29098e-05 3.73518e-03 -1.18374e-03 4.00000e-01
3.16e-01 5.79e-01 9.99543e-02 4.51697e-01 4.48348e-01 1.01903e+05 2.85009e+02 3.32349e-08 -1.18089e-07 4.10993e-06 -1.26592e-05 3.62875e-03 -1.39758e-03 4.00000e-01
3.16e-01 5.26e-01 9.99208e-02 4.39324e-01 4.60755e-01 1.01840e+05 2.85028e+02 2.96594e-08 -1.18049e-07 3.30978e-06 -1.14197e-05 3.39272e-03 -1.46565e-03 4.00000e-01
3.16e-01 4.74e-01 9.98841e-02 4.61156e-01 4.38960e-01 1.01779e+05 2.84956e+02 2.75879e-08 -1.18274e-07 3.69417e-06 -1.37407e-05 2.91882e-03 -1.42213e-03 4.00000e-01
3.16e-01 4.21e-01 9.99692e-02 4.41422e-01 4.58609e-01 1.01709e+05 2.85039e+02 2.51531e-08 -1.18858e-07 2.85297e-06 -1.16945e-05 2.84879e-03 -1.51907e-03 4.00000e-01
3.16e-01 3.68e-01 9.99037e-02 4.46754e-01 4.53343e-01 1.01649e+05 2.84997e+02 2.17642e-08 -1.17095e-07 2.58675e-06 -1.20515e-05 2.42662e-03 -1.34304e-03 4.00000e-01
3.16e-01 3.16e-01 9.99217e-02 4.62708e-01 4.37370e-01 1.01592e+05 2.84965e+02 2.03433e-08 -1.16326e-07 2.75532e-06 -1.36302e-05 2.13565e-03 -1.19006e-03 4.00000e-01
3.16e-01 2.63e-01 9.99613e-02 4.32455e-01 4.67584e-01 1.01539e+05 2.85057e+02 1.81771e-08 -1.14753e-07 1.91016e-06 -1.04021e-05 2.12615e-03 -1.08500e-03 4.00000e-01
3.16e-01 2.11e-01 9.99043e-02 4.57145e-01 4.42951e-01 1.01503e+05 2.84965e+02 1.66212e-08 -1.12054e-07 2.15250e-06 -1.24800e-05 1.78395e-03 -7.65200e-04 4.00000e-01
3.16e-01 1.58e-01 9.99479e-02 4.56802e-01 4.43250e-01 1.01470e+05 2.84992e+02 1.63226e-08 -1.10795e-07 2.10545e-06 -1.22630e-05 1.74947e-03 -6.01616e-04 4.00000e-01
3.16e-01 1.05e-01 9.99446e-02 4.31341e-01 4.68715e-01 1.01449e+05 2.85050e+02 1.51511e-08 -1.08422e-07 1.57762e-06 -9.64873e-06 1.78093e-03 -3.56806e-04 4.00000e-01
3.16e-01 5.26e-02 9.99169e-02 4.66231e-01 4.33852e-01 1.01442e+05 2.84958e+02 1.50777e-08 -1.05808e-07 2.10140e-06 -1.25597e-05 1.56191e-03 -8.97251e-05 4.00000e-01
3.16e-01 0.00e+00 9.99169e-02 4.66231e-01 4.33852e-01 1.01442e+05 2.84958e+02 1.50777e-08 -1.05085e-07 2.10140e-06 -1.24589e-05 1.56191e-03 -1.48018e-05 4.00000e-01
3.68e-01 1.00e+00 9.98767e-02 4.74627e-01 4.25496e-01 1.01952e+05 2.84957e+02 3.88609e-08 -1.04959e-07 5.80063e-06 -1.33312e-05 3.89991e-03 -1.43911e-05 4.00000e-01
3.68e-01 9.47e-01 9.98767e-02 4.74627e-01 4.25496e-01 1.01952e+05 2.84957e+02 3.88609e-08 -1.06404e-07 5.80063e-06 -1.35469e-05 3.89991e-03 -1.59418e-04 4.00000e-01
3.68e-01 8.95e-01 9.99617e-02 4.43876e-01 4.56163e-01 1.01938e+05 2.85043e+02 3.82232e-08 -1.08207e-07 4.42797e-06 -1.07117e-05 4.29061e-03 -3.10247e-04 4.00000e-01
3.68e-01 8.42e-01 9.98803e-02 4.47674e-01 4.52446e-01 1.01926e+05 2.84993e+02 3.68550e-08 -1.08447e-07 4.41778e-06 -1.11210e-05 4.09932e-03 -3.87434e-04 4.00000e-01
3.68e-01 7.89e-01 9.99116e-02 4.60676e-01 4.39413e-01 1.01905e+05 2.84971e+02 3.71498e-08 -1.10679e-07 4.95129e-06 -1.26620e-05 3.93151e-03 -6.02114e-04 4.00000e-01
3.68e-01 7.37e-01 9.99573e-02 4.35841e-01 4.64202e-01 1.01872e+05 2.85051e+02 3.59559e-08 -1.12150e-07 3.89067e-06 -1.04316e-05 4.15622e-03 -7.74092e-04 4.00000e-01
3.68e-01 6.84e-01 9.98681e-02 4.54084e-01 4.46048e-01 1.01841e+05 2.84969e+02 3.43603e-08 -1.12691e-07 4.34487e-06 -1.22703e-05 3.73569e-03 -8.54915e-04 4.00000e-01
3.68e-01 6.32e-01 9.99460e-02 4.55382e-01 4.44672e-01 1.01796e+05 2.84995e+02 3.37939e-08 -1.15033e-07 4.30888e-06 -1.26638e-05 3.64164e-03 -1.05950e-03 4.00000e-01
3.68e-01 5.79e-01 9.99385e-02 4.36644e-01 4.63418e-01 1.01746e+05 2.85040e+02 3.12338e-08 -1.15450e-07 3.40484e-06 -1.08699e-05 3.60396e-03 -1.16667e-03 4.00000e-01
3.68e-01 5.26e-01 9.98800e-02 4.59812e-01 4.40308e-01 1.01698e+05 2.84956e+02 2.93830e-08 -1.15662e-07 3.89223e-06 -1.32468e-05 3.12538e-03 -1.15380e-03 4.00000e-01
3.68e-01 4.74e-01 9.99697e-02 4.46204e-01 4.53826e-01 1.01640e+05 2.85026e+02 2.78613e-08 -1.16779e-07 3.28979e-06 -1.19293e-05 3.10159e-03 -1.26726e-03 4.00000e-01
3.68e-01 4.21e-01 9.99168e-02 4.42479e-01 4.57604e-01 1.01588e+05 2.85013e+02 2.48974e-08 -1.15704e-07 2.85366e-06 -1.14603e-05 2.81724e-03 -1.19389e-03 4.00000e-01
3.68e-01 3.68e-01 9.99115e-02 4.63277e-01 4.36812e-01 1.01538e+05 2.84957e+02 2.35316e-08 -1.15402e-07 3.20272e-06 -1.35719e-05 2.46656e-03 -1.09832e-03 4.00000e-01
3.68e-01 3.16e-01 9.99709e-02 4.35811e-01 4.64218e-01 1.01486e+05 2.85052e+02 2.15516e-08 -1.14764e-07 2.33033e-06 -1.07039e-05 2.49008e-03 -1.07156e-03 4.00000e-01
3.68e-01 2.63e-01 9.99078e-02 4.52128e-01 4.47964e-01 1.01449e+05 2.84979e+02 1.95409e-08 -1.12530e-07 2.42812e-06 -1.20322e-05 2.13630e-03 -8.24506e-04 4.00000e-01
3.68e-01 2.11e-01 9.99425e-02 4.60918e-01 4.39140e-01 1.01414e+05 2.84977e+02 1.91264e-08 -1.11706e-07 2.55158e-06 -1.28055e-05 2.01939e-03 -6.97292e-04 4.00000e-01
3.68e-01 1.58e-01 9.99568e-02 4.30621e-01 4.69422e-01 1.01385e+05 2.85057e+02 1.77298e-08 -1.09929e-07 1.83401e-06 -9.73996e-06 2.08791e-03 -5.27122e-04 4.00000e-01
3.68e-01 1.05e-01 9.99130e-02 4.62047e-01 4.38040e-01 1.01371e+05 2.84953e+02 1.72260e-08 -1.07659e-07 2.32091e-06 -1.23913e-05 1.81448e-03 -2.90134e-04 4.00000e-01
3.68e-01 5.26e-02 9.99583e-02 4.51228e-01 4.48814e-01 1.01360e+05 2.85015e+02 1.74876e-08 -1.06624e-07 2.15400e-06 -1.11934e-05 1.91209e-03 -1.44894e-04 4.00000e-01
3.68e-01 0.00e+00 9.99583e-02 4.51228e-01 4.48814e-01 1.01360e+05 2.85015e+02 1.74876e-08 -1.05442e-07 2.15400e-06 -1.10478e-05 1.91209e-03 -1.56611e-05 4.00000e-01
4.21e-01 1.00e+00 9.99811e-02 4.30293e-01 4.69726e-01 1.01756e+05 2.85033e+02 3.69630e-08 -1.05612e-07 3.80791e-06 -9.25703e-06 4.35794e-03 -1.69764e-05 4.00000e-01
4.21e-01 9.47e-01 9.99811e-02 4.30293e-01 4.69726e-01 1.01756e+05 2.85033e+02 3.69630e-08 -1.05618e-07 3.80791e-06 -9.25767e-06 4.35794e-03 -1.77144e-05 4.00000e-01
4.21e-01 8.95e-01 9.99023e-02 4.40945e-01 4.59153e-01 1.01756e+05 2.85005e+02 3.58397e-08 -1.06194e-07 4.05632e-06 -1.02425e-05 4.08182e-03 -1.26920e-04 4.00000e-01
4.21e-01 8.42e-01 9.99056e-02 4.61698e-01 4.38397e-01 1.01747e+05 2.84961e+02 3.62641e-08 -1.08363e-07 4.87405e-06 -1.24578e-05 3.82481e-03 -3.62395e-04 4.00000e-01
4.21e-01 7.89e-01 9.99682e-02 4.37041e-01 4.62991e-01 1.01724e+05 2.85050e+02 3.55667e-08 -1.10040e-07 3.88684e-06 -1.03035e-05 4.09181e-03 -5.24369e-04 4.00000e-01
4.21e-01 7.37e-01 9.98814e-02 4.51291e-01 4.48827e-01 1.01703e+05 2.84979e+02 3.41685e-08 -1.10342e-07 4.22026e-06 -1.16929e-05 3.75113e-03 -5.97050e-04 4.00000e-01
4.21e-01 6.84e-01 9.99375e-02 4.58661e-01 4.41401e-01 1.01672e+05 2.84982e+02 3.41309e-08 -1.12483e-07 4.47123e-06 -1.26780e-05 3.63503e-03 -7.84602e-04 4.00000e-01
4.21e-01 6.32e-01 9.99551e-02 4.35094e-01 4.64951e-01 1.01633e+05 2.85048e+02 3.22213e-08 -1.13175e-07 3.46435e-06 -1.04744e-05 3.73532e-03 -8.98403e-04 4.00000e-01
4.21e-01 5.79e-01 9.98815e-02 4.57900e-01 4.42219e-01 1.01597e+05 2.84960e+02 3.06018e-08 -1.13285e-07 3.99067e-06 -1.27300e-05 3.27846e-03 -9.05972e-04 4.00000e-01
4.21e-01 5.26e-01 9.99665e-02 4.50947e-01 4.49086e-01 1.01551e+05 2.85012e+02 2.96990e-08 -1.14761e-07 3.64834e-06 -1.21637e-05 3.25010e-03 -1.03265e-03 4.00000e-01
4.21e-01 4.74e-01 9.99330e-02 4.38804e-01 4.61263e-01 1.01506e+05 2.85027e+02 2.71392e-08 -1.14174e-07 3.01377e-06 -1.09313e-05 3.10900e-03 -1.02084e-03 4.00000e-01
4.21e-01 4.21e-01 9.99036e-02 4.62742e-01 4.37354e-01 1.01465e+05 2.84954e+02 2.58799e-08 -1.14015e-07 3.50788e-06 -1.33287e-05 2.71955e-03 -9.60142e-04 4.00000e-01
4.21e-01 3.68e-01 9.99772e-02 4.40287e-01 4.59736e-01 1.01418e+05 2.85042e+02 2.43521e-08 -1.14140e-07 2.73492e-06 -1.10475e-05 2.76846e-03 -9.85509e-04 4.00000e-01
4.21e-01 3.16e-01 9.99164e-02 4.47231e-01 4.52853e-01 1.01381e+05 2.84995e+02 2.21535e-08 -1.12412e-07 2.64231e-06 -1.15334e-05 2.46462e-03 -8.16170e-04 4.00000e-01
4.21e-01 2.63e-01 9.99347e-02 4.63296e-01 4.36769e-01 1.01347e+05 2.84964e+02 2.16451e-08 -1.11917e-07 2.94429e-06 -1.30868e-05 2.26603e-03 -7.21510e-04 4.00000e-01
4.21e-01 2.11e-01 9.99687e-02 4.31960e-01 4.68071e-01 1.01315e+05 2.85058e+02 2.02131e-08 -1.10767e-07 2.11448e-06 -9.93640e-06 2.36778e-03 -6.17297e-04 4.00000e-01
4.21e-01 1.58e-01 9.99138e-02 4.57515e-01 4.42572e-01 1.01297e+05 2.84964e+02 1.92268e-08 -1.08680e-07 2.49662e-06 -1.20737e-05 2.06003e-03 -4.00176e-04 4.00000e-01
4.21e-01 1.05e-01 9.99572e-02 4.56827e-01 4.43216e-01 1.01280e+05 2.84993e+02 1.93220e-08 -1.08023e-07 2.49203e-06 -1.19021e-05 2.06999e-03 -3.01476e-04 4.00000e-01
4.21e-01 5.26e-02 9.99525e-02 4.31724e-01 4.68324e-01 1.01271e+05 2.85033e+02 1.84005e-08 -1.06407e-07 1.92130e-06 -9.46500e-06 2.16068e-03 -1.25178e-04 4.00000e-01
4.21e-01 0.00e+00 9.99525e-02 4.31724e-01 4.68324e-01 1.01271e+05 2.85033e+02 1.84005e-08 -1.05484e-07 1.92130e-06 -9.36864e-06 2.16068e-03 -1.68108e-05 4.00000e-01