TITLE =  "Filtration in time=7000.00" 
VARIABLES = "X","Y","S_w","S_n","S_g","P_w","T","uw_x","uw_y","un_x","un_y","ug_x","ug_y","porosity" 
ZONE T = "BIG ZONE", K=20,J=20, F = POINT
0.00e+00 1.00e+00 6.00000e-01 1.50000e-01 2.50000e-01 1.10000e+05 3.20000e+02 9.05869e-05 -1.22550e-04 1.61667e-07 -1.86933e-07 2.83629e-03 -5.01911e-06 4.00000e-01
0.00e+00 9.47e-01 6.00000e-01 1.50000e-01 2.50000e-01 1.10000e+05 3.20000e+02 9.05869e-05 -1.22550e-04 1.61667e-07 -1.86933e-07 2.83629e-03 -5.01911e-06 4.00000e-01
0.00e+00 8.95e-01 6.00000e-01 1.50000e-01 2.50000e-01 1.10000e+05 3.20000e+02 9.15499e-05 -1.22550e-04 1.63386e-07 -1.86933e-07 2.86645e-03 -5.01911e-06 4.00000e-01
0.00e+00 8.42e-01 6.00000e-01 1.50000e-01 2.50000e-01 1.10000e+05 3.20000e+02 9.36292e-05 -1.22550e-04 1.67097e-07 -1.86933e-07 2.93155e-03 -5.01911e-06 4.00000e-01
0.00e+00 7.89e-01 6.00000e-01 1.50000e-01 2.50000e-01 1.10000e+05 3.20000e+02 9.71749e-05 -1.22550e-04 1.73425e-07 -1.86933e-07 3.04256e-03 -5.01911e-06 4.00000e-01
0.00e+00 7.37e-01 6.00000e-01 1.50000e-01 2.50000e-01 1.10000e+05 3.20000e+02 1.02876e-04 -1.22550e-04 1.83599e-07 -1.86933e-07 3.22106e-03 -5.01911e-06 4.00000e-01
0.00e+00 6.84e-01 6.00000e-01 1.50000e-01 2.50000e-01 1.10000e+05 3.20000e+02 1.12115e-04 -1.22550e-04 2.00088e-07 -1.86933e-07 3.51034e-03 -5.01911e-06 4.00000e-01
0.00e+00 6.32e-01 6.00000e-01 1.50000e-01 2.50000e-01 1.10000e+05 3.20000e+02 1.27904e-04 -1.22550e-04 2.28266e-07 -1.86933e-07 4.00470e-03 -5.01911e-06 4.00000e-01
0.00e+00 5.79e-01 6.00000e-01 1.50000e-01 2.50000e-01 1.10000e+05 3.20000e+02 1.57611e-04 -1.22550e-04 2.81283e-07 -1.86933e-07 4.93484e-03 -5.01911e-06 4.00000e-01
0.00e+00 5.26e-01 6.00000e-01 1.50000e-01 2.50000e-01 1.10000e+05 3.20000e+02 2.21808e-04 -3.15547e-04 3.95852e-07 -5.31369e-07 6.94484e-03 -6.04779e-03 4.00000e-01
0.00e+00 4.74e-01 5.94683e-01 1.58444e-01 2.46873e-01 1.08367e+05 3.19992e+02 -0.00000e+00 -3.58702e-04 -0.00000e+00 -8.06422e-07 -0.00000e+00 -7.60756e-03 4.00000e-01
0.00e+00 4.21e-01 5.92625e-01 1.63626e-01 2.43749e-01 1.07899e+05 3.19986e+02 -0.00000e+00 -2.08847e-04 -0.00000e+00 -5.28636e-07 -0.00000e+00 -2.88549e-03 4.00000e-01
0.00e+00 3.68e-01 5.90365e-01 1.70175e-01 2.39460e-01 1.07552e+05 3.19981e+02 -0.00000e+00 -1.83473e-04 -0.00000e+00 -5.53173e-07 -0.00000e+00 -2.10533e-03 4.00000e-01
0.00e+00 3.16e-01 5.88059e-01 1.77679e-01 2.34262e-01 1.07285e+05 3.19974e+02 -0.00000e+00 -1.65686e-04 -0.00000e+00 -6.06012e-07 -0.00000e+00 -1.57001e-03 4.00000e-01
0.00e+00 2.63e-01 5.85826e-01 1.85823e-01 2.28351e-01 1.07077e+05 3.19968e+02 -0.00000e+00 -1.51786e-04 -0.00000e+00 -6.78092e-07 -0.00000e+00 -1.16328e-03 4.00000e-01
0.00e+00 2.11e-01 5.83754e-01 1.94413e-01 2.21833e-01 1.06917e+05 3.19961e+02 -0.00000e+00 -1.40119e-04 -0.00000e+00 -7.64501e-07 -0.00000e+00 -8.33685e-04 4.00000e-01
0.00e+00 1.58e-01 5.81924e-01 2.03372e-01 2.14704e-01 1.06799e+05 3.19954e+02 -0.00000e+00 -1.29833e-04 -0.00000e+00 -8.62172e-07 -0.00000e+00 -5.55216e-04 4.00000e-01
0.00e+00 1.05e-01 5.80429e-01 2.12742e-01 2.06829e-01 1.06721e+05 3.19946e+02 -0.00000e+00 -1.20418e-04 -0.00000e+00 -9.69093e-07 -0.00000e+00 -3.13242e-04 4.00000e-01
0.00e+00 5.26e-02 5.79452e-01 2.22726e-01 1.97822e-01 1.06681e+05 3.19934e+02 -0.00000e+00 -1.11527e-04 -0.00000e+00 -1.08415e-06 -0.00000e+00 -9.91855e-05 4.00000e-01
0.00e+00 0.00e+00 5.79452e-01 2.22726e-01 1.97822e-01 1.06681e+05 3.19934e+02 -0.00000e+00 -1.07421e-04 -0.00000e+00 -1.03765e-06 -0.00000e+00 -3.19105e-06 4.00000e-01
5.26e-02 1.00e+00 5.92263e-01 1.63847e-01 2.43890e-01 1.09617e+05 3.19999e+02 8.79778e-05 -1.16756e-04 2.44836e-07 -2.77657e-07 2.76519e-03 -4.78431e-06 4.00000e-01
5.26e-02 9.47e-01 5.92263e-01 1.63847e-01 2.43890e-01 1.09617e+05 3.19999e+02 8.79778e-05 -1.17215e-04 2.44836e-07 -2.78933e-07 2.76519e-03 -1.92051e-05 4.00000e-01
5.26e-02 8.95e-01 5.92290e-01 1.63764e-01 2.43946e-01 1.09613e+05 3.19999e+02 8.88427e-05 -1.18226e-04 2.46651e-07 -2.81064e-07 2.79305e-03 -5.03623e-05 4.00000e-01
5.26e-02 8.42e-01 5.92378e-01 1.63532e-01 2.44090e-01 1.09604e+05 3.19999e+02 9.07085e-05 -1.19522e-04 2.50128e-07 -2.82709e-07 2.85318e-03 -8.91484e-05 4.00000e-01
5.26e-02 7.89e-01 5.92560e-01 1.63088e-01 2.44351e-01 1.09589e+05 3.19999e+02 9.38603e-05 -1.21386e-04 2.55441e-07 -2.84039e-07 2.95461e-03 -1.43739e-04 4.00000e-01
5.26e-02 7.37e-01 5.92877e-01 1.62363e-01 2.44760e-01 1.09565e+05 3.19999e+02 9.88154e-05 -1.24348e-04 2.63150e-07 -2.85733e-07 3.11378e-03 -2.29974e-04 4.00000e-01
5.26e-02 6.84e-01 5.93375e-01 1.61270e-01 2.45356e-01 1.09526e+05 3.19998e+02 1.06499e-04 -1.29574e-04 2.74379e-07 -2.89752e-07 3.36011e-03 -3.83682e-04 4.00000e-01
5.26e-02 6.32e-01 5.94112e-01 1.59704e-01 2.46184e-01 1.09459e+05 3.19998e+02 1.18582e-04 -1.40033e-04 2.91201e-07 -3.01666e-07 3.74678e-03 -6.97719e-04 4.00000e-01
5.26e-02 5.79e-01 5.95137e-01 1.57584e-01 2.47279e-01 1.09333e+05 3.19997e+02 1.38068e-04 -1.64407e-04 3.17436e-07 -3.38202e-07 4.36934e-03 -1.44638e-03 4.00000e-01
5.26e-02 5.26e-01 5.96379e-01 1.55023e-01 2.48598e-01 1.09062e+05 3.19996e+02 1.69794e-04 -2.31406e-04 3.60118e-07 -4.53774e-07 5.38315e-03 -3.54442e-03 4.00000e-01
5.26e-02 4.74e-01 5.94683e-01 1.58444e-01 2.46873e-01 1.08367e+05 3.19992e+02 2.73680e-05 -2.51423e-04 6.46461e-08 -5.53019e-07 8.66087e-04 -4.21263e-03 4.00000e-01
5.26e-02 4.21e-01 5.92625e-01 1.63626e-01 2.43749e-01 1.07899e+05 3.19986e+02 1.52512e-05 -2.08847e-04 4.20470e-08 -5.28636e-07 4.77881e-04 -2.88549e-03 4.00000e-01
5.26e-02 3.68e-01 5.90365e-01 1.70175e-01 2.39460e-01 1.07552e+05 3.19981e+02 1.01779e-05 -1.83473e-04 3.37951e-08 -5.53173e-07 3.13343e-04 -2.10533e-03 4.00000e-01
5.26e-02 3.16e-01 5.88059e-01 1.77679e-01 2.34262e-01 1.07285e+05 3.19974e+02 7.69592e-06 -1.65686e-04 3.12919e-08 -6.06012e-07 2.31112e-04 -1.57001e-03 4.00000e-01
5.26e-02 2.63e-01 5.85826e-01 1.85823e-01 2.28351e-01 1.07077e+05 3.19968e+02 6.31397e-06 -1.51786e-04 3.16285e-08 -6.78092e-07 1.83671e-04 -1.16328e-03 4.00000e-01
5.26e-02 2.11e-01 5.83754e-01 1.94413e-01 2.21833e-01 1.06917e+05 3.19961e+02 5.47326e-06 -1.40119e-04 3.37691e-08 -7.64501e-07 1.53121e-04 -8.33685e-04 4.00000e-01
5.26e-02 1.58e-01 5.81924e-01 2.03372e-01 2.14704e-01 1.06799e+05 3.19954e+02 4.94199e-06 -1.29833e-04 3.74392e-08 -8.62172e-07 1.31875e-04 -5.55216e-04 4.00000e-01
5.26e-02 1.05e-01 5.80429e-01 2.12742e-01 2.06829e-01 1.06721e+05 3.19946e+02 4.61731e-06 -1.20418e-04 4.28018e-08 -9.69093e-07 1.16266e-04 -3.13242e-04 4.00000e-01
5.26e-02 5.26e-02 5.79452e-01 2.22726e-01 1.97822e-01 1.06681e+05 3.19934e+02 4.45578e-06 -1.11527e-04 5.04507e-08 -1.08415e-06 1.04165e-04 -9.91855e-05 4.00000e-01
5.26e-02 0.00e+00 5.79452e-01 2.22726e-01 1.97822e-01 1.06681e+05 3.19934e+02 4.45578e-06 -1.07421e-04 5.04507e-08 -1.03765e-06 1.04165e-04 -3.19105e-06 4.00000e-01
1.05e-01 1.00e+00 5.83661e-01 1.79123e-01 2.37216e-01 1.09219e+05 3.20001e+02 8.64368e-05 -1.10578e-04 3.79118e-07 -4.14356e-07 2.72847e-03 -4.53492e-06 4.00000e-01
1.05e-01 9.47e-01 5.83661e-01 1.79123e-01 2.37216e-01 1.09219e+05 3.20001e+02 8.64368e-05 -1.11383e-04 3.79118e-07 -4.17886e-07 2.72847e-03 -2.99427e-05 4.00000e-01
1.05e-01 8.95e-01 5.83684e-01 1.79024e-01 2.37292e-01 1.09211e+05 3.20002e+02 8.70938e-05 -1.13119e-04 3.81040e-07 -4.24420e-07 2.75039e-03 -8.42850e-05 4.00000e-01
1.05e-01 8.42e-01 5.83766e-01 1.78744e-01 2.37490e-01 1.09195e+05 3.20001e+02 8.84803e-05 -1.15255e-04 3.84273e-07 -4.30553e-07 2.79693e-03 -1.50110e-04 4.00000e-01
1.05e-01 7.89e-01 5.83951e-01 1.78199e-01 2.37849e-01 1.09168e+05 3.20001e+02 9.07274e-05 -1.18175e-04 3.88345e-07 -4.36749e-07 2.87240e-03 -2.38703e-04 4.00000e-01
1.05e-01 7.37e-01 5.84290e-01 1.77302e-01 2.38408e-01 1.09126e+05 3.20001e+02 9.40110e-05 -1.22498e-04 3.92719e-07 -4.44150e-07 2.98257e-03 -3.68905e-04 4.00000e-01
1.05e-01 6.84e-01 5.84837e-01 1.75955e-01 2.39208e-01 1.09061e+05 3.20001e+02 9.84762e-05 -1.29321e-04 3.96377e-07 -4.55184e-07 3.13226e-03 -5.74745e-04 4.00000e-01
1.05e-01 6.32e-01 5.85646e-01 1.74075e-01 2.40279e-01 1.08959e+05 3.20000e+02 1.03907e-04 -1.40595e-04 3.96775e-07 -4.74540e-07 3.31467e-03 -9.18035e-04 4.00000e-01
1.05e-01 5.79e-01 5.86720e-01 1.71703e-01 2.41577e-01 1.08796e+05 3.19999e+02 1.08453e-04 -1.59328e-04 3.87038e-07 -5.09925e-07 3.46983e-03 -1.49605e-03 4.00000e-01
1.05e-01 5.26e-01 5.87779e-01 1.69456e-01 2.42765e-01 1.08531e+05 3.19997e+02 1.03870e-04 -1.86610e-04 3.47251e-07 -5.68493e-07 3.33040e-03 -2.35037e-03 4.00000e-01
1.05e-01 4.74e-01 5.86763e-01 1.72249e-01 2.40988e-01 1.08128e+05 3.19995e+02 5.82556e-05 -1.96152e-04 2.10582e-07 -6.49496e-07 1.85526e-03 -2.66217e-03 4.00000e-01
1.05e-01 4.21e-01 5.85156e-01 1.76779e-01 2.38065e-01 1.07764e+05 3.19993e+02 3.73979e-05 -1.83342e-04 1.53027e-07 -6.83413e-07 1.17708e-03 -2.26431e-03 4.00000e-01
1.05e-01 3.68e-01 5.83386e-01 1.82241e-01 2.34373e-01 1.07461e+05 3.19992e+02 2.69290e-05 -1.68674e-04 1.27273e-07 -7.20843e-07 8.33391e-04 -1.81145e-03 4.00000e-01
1.05e-01 3.16e-01 5.81621e-01 1.88319e-01 2.30061e-01 1.07215e+05 3.19990e+02 2.11565e-05 -1.55621e-04 1.16627e-07 -7.69752e-07 6.40365e-04 -1.41420e-03 4.00000e-01
1.05e-01 2.63e-01 5.79936e-01 1.94902e-01 2.25162e-01 1.07019e+05 3.19988e+02 1.77084e-05 -1.44292e-04 1.14500e-07 -8.30653e-07 5.21170e-04 -1.07619e-03 4.00000e-01
1.05e-01 2.11e-01 5.78384e-01 2.01976e-01 2.19639e-01 1.06865e+05 3.19985e+02 1.55331e-05 -1.34271e-04 1.18273e-07 -9.03034e-07 4.41474e-04 -7.84996e-04 4.00000e-01
1.05e-01 1.58e-01 5.77023e-01 2.09577e-01 2.13400e-01 1.06752e+05 3.19983e+02 1.41370e-05 -1.25168e-04 1.27194e-07 -9.86331e-07 3.84751e-04 -5.29368e-04 4.00000e-01
1.05e-01 1.05e-01 5.75947e-01 2.17793e-01 2.06261e-01 1.06677e+05 3.19979e+02 1.32835e-05 -1.16678e-04 1.41709e-07 -1.08004e-06 3.42291e-04 -3.01387e-04 4.00000e-01
1.05e-01 5.26e-02 5.75343e-01 2.26830e-01 1.97827e-01 1.06638e+05 3.19970e+02 1.28696e-05 -1.08565e-04 1.63509e-07 -1.18396e-06 3.08688e-04 -9.60968e-05 4.00000e-01
1.05e-01 0.00e+00 5.75343e-01 2.26830e-01 1.97827e-01 1.06638e+05 3.19970e+02 1.28696e-05 -1.04692e-04 1.63509e-07 -1.13475e-06 3.08688e-04 -3.18932e-06 4.00000e-01
1.58e-01 1.00e+00 5.75987e-01 1.92553e-01 2.31459e-01 1.08807e+05 3.20004e+02 8.48003e-05 -1.05282e-04 5.41058e-07 -5.73764e-07 2.68929e-03 -4.32224e-06 4.00000e-01
1.58e-01 9.47e-01 5.75987e-01 1.92553e-01 2.31459e-01 1.08807e+05 3.20004e+02 8.48003e-05 -1.06310e-04 5.41058e-07 -5.80320e-07 2.68929e-03 -3.69108e-05 4.00000e-01
1.58e-01 8.95e-01 5.75997e-01 1.92471e-01 2.31532e-01 1.08796e+05 3.20004e+02 8.52268e-05 -1.08486e-04 5.42752e-07 -5.93075e-07 2.70418e-03 -1.05787e-04 4.00000e-01
1.58e-01 8.42e-01 5.76042e-01 1.92230e-01 2.31728e-01 1.08775e+05 3.20004e+02 8.60922e-05 -1.11051e-04 5.45175e-07 -6.05941e-07 2.73501e-03 -1.86457e-04 4.00000e-01
1.58e-01 7.89e-01 5.76157e-01 1.91761e-01 2.32082e-01 1.08740e+05 3.20004e+02 8.73981e-05 -1.14345e-04 5.47225e-07 -6.19675e-07 2.78210e-03 -2.89275e-04 4.00000e-01
1.58e-01 7.37e-01 5.76381e-01 1.90995e-01 2.32625e-01 1.08687e+05 3.20004e+02 8.90812e-05 -1.18840e-04 5.47348e-07 -6.35572e-07 2.84356e-03 -4.28816e-04 4.00000e-01
1.58e-01 6.84e-01 5.76750e-01 1.89877e-01 2.33373e-01 1.08609e+05 3.20004e+02 9.08813e-05 -1.25185e-04 5.42974e-07 -6.55677e-07 2.91096e-03 -6.25657e-04 4.00000e-01
1.58e-01 6.32e-01 5.77284e-01 1.88407e-01 2.34310e-01 1.08497e+05 3.20003e+02 9.20305e-05 -1.34149e-04 5.29572e-07 -6.82758e-07 2.95902e-03 -9.04827e-04 4.00000e-01
1.58e-01 5.79e-01 5.77930e-01 1.86756e-01 2.35314e-01 1.08336e+05 3.20002e+02 9.05962e-05 -1.46083e-04 4.99413e-07 -7.19463e-07 2.92336e-03 -1.27927e-03 4.00000e-01
1.58e-01 5.26e-01 5.78427e-01 1.85600e-01 2.35974e-01 1.08113e+05 3.20001e+02 8.25309e-05 -1.58959e-04 4.41206e-07 -7.66242e-07 2.66814e-03 -1.68741e-03 4.00000e-01
1.58e-01 4.74e-01 5.78033e-01 1.87229e-01 2.34738e-01 1.07832e+05 3.20000e+02 6.29940e-05 -1.64422e-04 3.50599e-07 -8.28283e-07 2.02248e-03 -1.86026e-03 4.00000e-01
1.58e-01 4.21e-01 5.77107e-01 1.90469e-01 2.32424e-01 1.07551e+05 3.19999e+02 4.79142e-05 -1.60409e-04 2.89013e-07 -8.73960e-07 1.52014e-03 -1.73135e-03 4.00000e-01
1.58e-01 3.68e-01 5.75955e-01 1.94640e-01 2.29405e-01 1.07300e+05 3.19998e+02 3.78561e-05 -1.52608e-04 2.52711e-07 -9.15831e-07 1.18177e-03 -1.48472e-03 4.00000e-01
1.58e-01 3.16e-01 5.74748e-01 1.99420e-01 2.25832e-01 1.07084e+05 3.19997e+02 3.12844e-05 -1.43924e-04 2.33757e-07 -9.61033e-07 9.56757e-04 -1.21408e-03 4.00000e-01
1.58e-01 2.63e-01 5.73578e-01 2.04695e-01 2.21727e-01 1.06907e+05 3.19996e+02 2.69420e-05 -1.35403e-04 2.26968e-07 -1.01264e-06 8.03146e-04 -9.52974e-04 4.00000e-01
1.58e-01 2.11e-01 5.72507e-01 2.10471e-01 2.17022e-01 1.06766e+05 3.19995e+02 2.40414e-05 -1.27312e-04 2.29757e-07 -1.07238e-06 6.94232e-04 -7.10247e-04 4.00000e-01
1.58e-01 1.58e-01 5.71592e-01 2.16828e-01 2.11579e-01 1.06661e+05 3.19993e+02 2.21261e-05 -1.19638e-04 2.41429e-07 -1.14159e-06 6.13862e-04 -4.86458e-04 4.00000e-01
1.58e-01 1.05e-01 5.70928e-01 2.23903e-01 2.05170e-01 1.06590e+05 3.19990e+02 2.09470e-05 -1.12289e-04 2.62875e-07 -1.22152e-06 5.52046e-04 -2.80146e-04 4.00000e-01
1.58e-01 5.26e-02 5.70703e-01 2.31931e-01 1.97366e-01 1.06554e+05 3.19979e+02 2.03921e-05 -1.05157e-04 2.96862e-07 -1.31349e-06 5.01740e-04 -9.01459e-05 4.00000e-01
1.58e-01 0.00e+00 5.70703e-01 2.31931e-01 1.97366e-01 1.06554e+05 3.19979e+02 2.03921e-05 -1.01622e-04 2.96862e-07 -1.26203e-06 5.01740e-04 -3.17317e-06 4.00000e-01
2.11e-01 1.00e+00 5.69187e-01 2.04289e-01 2.26524e-01 1.08384e+05 3.20005e+02 8.28115e-05 -1.00753e-04 7.21145e-07 -7.49238e-07 2.63919e-03 -4.14134e-06 4.00000e-01
2.11e-01 9.47e-01 5.69187e-01 2.04289e-01 2.26524e-01 1.08384e+05 3.20005e+02 8.28115e-05 -1.01890e-04 7.21145e-07 -7.59137e-07 2.63919e-03 -4.03677e-05 4.00000e-01
2.11e-01 8.95e-01 5.69186e-01 2.04229e-01 2.26585e-01 1.08372e+05 3.20005e+02 8.30288e-05 -1.04261e-04 7.22161e-07 -7.78837e-07 2.64741e-03 -1.16029e-04 4.00000e-01
2.11e-01 8.42e-01 5.69196e-01 2.04052e-01 2.26753e-01 1.08348e+05 3.20005e+02 8.34375e-05 -1.06944e-04 7.23029e-07 -7.99191e-07 2.66384e-03 -2.01690e-04 4.00000e-01
2.11e-01 7.89e-01 5.69236e-01 2.03705e-01 2.27059e-01 1.08309e+05 3.20005e+02 8.39689e-05 -1.10189e-04 7.22213e-07 -8.21096e-07 2.68663e-03 -3.05142e-04 4.00000e-01
2.11e-01 7.37e-01 5.69333e-01 2.03147e-01 2.27520e-01 1.08251e+05 3.20005e+02 8.44628e-05 -1.14282e-04 7.17548e-07 -8.45694e-07 2.71065e-03 -4.35486e-04 4.00000e-01
2.11e-01 6.84e-01 5.69503e-01 2.02363e-01 2.28134e-01 1.08171e+05 3.20005e+02 8.45773e-05 -1.19516e-04 7.05879e-07 -8.74332e-07 2.72453e-03 -6.02249e-04 4.00000e-01
2.11e-01 6.32e-01 5.69747e-01 2.01399e-01 2.28853e-01 1.08061e+05 3.20005e+02 8.36449e-05 -1.26049e-04 6.82749e-07 -9.08212e-07 2.70557e-03 -8.11062e-04 4.00000e-01
2.11e-01 5.79e-01 5.70014e-01 2.00448e-01 2.29538e-01 1.07915e+05 3.20005e+02 8.05203e-05 -1.33534e-04 6.42761e-07 -9.47698e-07 2.61407e-03 -1.05162e-03 4.00000e-01
2.11e-01 5.26e-01 5.70154e-01 1.99993e-01 2.29853e-01 1.07731e+05 3.20004e+02 7.37271e-05 -1.40440e-04 5.82205e-07 -9.91873e-07 2.39732e-03 -1.27513e-03 4.00000e-01
2.11e-01 4.74e-01 5.69963e-01 2.01047e-01 2.28990e-01 1.07516e+05 3.20003e+02 6.29143e-05 -1.43783e-04 5.08740e-07 -1.04279e-06 2.03443e-03 -1.38057e-03 4.00000e-01
2.11e-01 4.21e-01 5.69455e-01 2.03339e-01 2.27206e-01 1.07295e+05 3.20002e+02 5.26636e-05 -1.42510e-04 4.48621e-07 -1.08804e-06 1.68466e-03 -1.33598e-03 4.00000e-01
2.11e-01 3.68e-01 5.68754e-01 2.06496e-01 2.24749e-01 1.07088e+05 3.20001e+02 4.45079e-05 -1.38273e-04 4.06985e-07 -1.12972e-06 1.40250e-03 -1.19720e-03 4.00000e-01
2.11e-01 3.16e-01 5.67976e-01 2.10270e-01 2.21754e-01 1.06905e+05 3.20000e+02 3.84443e-05 -1.32602e-04 3.81890e-07 -1.17159e-06 1.18844e-03 -1.01508e-03 4.00000e-01
2.11e-01 2.63e-01 5.67205e-01 2.14546e-01 2.18249e-01 1.06749e+05 3.19998e+02 3.40627e-05 -1.26389e-04 3.70637e-07 -1.21646e-06 1.02829e-03 -8.19041e-04 4.00000e-01
2.11e-01 2.11e-01 5.66507e-01 2.19318e-01 2.14175e-01 1.06623e+05 3.19995e+02 3.09600e-05 -1.20060e-04 3.71602e-07 -1.26663e-06 9.07467e-04 -6.23187e-04 4.00000e-01
2.11e-01 1.58e-01 5.65948e-01 2.24668e-01 2.09384e-01 1.06528e+05 3.19991e+02 2.88403e-05 -1.13782e-04 3.84661e-07 -1.32445e-06 8.14440e-04 -4.33562e-04 4.00000e-01
2.11e-01 1.05e-01 5.65622e-01 2.30755e-01 2.03623e-01 1.06463e+05 3.19984e+02 2.75200e-05 -1.07599e-04 4.11405e-07 -1.39249e-06 7.40505e-04 -2.52702e-04 4.00000e-01
2.11e-01 5.26e-02 5.65716e-01 2.37845e-01 1.96439e-01 1.06430e+05 3.19967e+02 2.69173e-05 -1.01501e-04 4.55743e-07 -1.47374e-06 6.78371e-04 -8.21603e-05 4.00000e-01
2.11e-01 0.00e+00 5.65716e-01 2.37845e-01 1.96439e-01 1.06430e+05 3.19967e+02 2.69173e-05 -9.83651e-05 4.55743e-07 -1.42065e-06 6.78371e-04 -3.14270e-06 4.00000e-01
2.63e-01 1.00e+00 5.63002e-01 2.14841e-01 2.22157e-01 1.07955e+05 3.20000e+02 8.06138e-05 -9.67560e-05 9.17833e-07 -9.40499e-07 2.58246e-03 -3.98263e-06 4.00000e-01
2.63e-01 9.47e-01 5.63002e-01 2.14841e-01 2.22157e-01 1.07955e+05 3.20000e+02 8.06138e-05 -9.79099e-05 9.17833e-07 -9.53638e-07 2.58246e-03 -4.09491e-05 4.00000e-01
2.63e-01 8.95e-01 5.62994e-01 2.14803e-01 2.22202e-01 1.07943e+05 3.20000e+02 8.06663e-05 -1.00287e-04 9.17825e-07 -9.80059e-07 2.58523e-03 -1.17323e-04 4.00000e-01
2.63e-01 8.42e-01 5.62979e-01 2.14688e-01 2.22334e-01 1.07917e+05 3.20000e+02 8.07290e-05 -1.02884e-04 9.16620e-07 -1.00751e-06 2.59027e-03 -2.01145e-04 4.00000e-01
2.63e-01 7.89e-01 5.62963e-01 2.14460e-01 2.22577e-01 1.07877e+05 3.20001e+02 8.07110e-05 -1.05859e-04 9.12515e-07 -1.03685e-06 2.59507e-03 -2.97568e-04 4.00000e-01
2.63e-01 7.37e-01 5.62960e-01 2.14101e-01 2.22940e-01 1.07819e+05 3.20001e+02 8.04450e-05 -1.09358e-04 9.03200e-07 -1.06892e-06 2.59419e-03 -4.11447e-04 4.00000e-01
2.63e-01 6.84e-01 5.62976e-01 2.13615e-01 2.23409e-01 1.07741e+05 3.20001e+02 7.96458e-05 -1.13474e-04 8.85674e-07 -1.10442e-06 2.57788e-03 -5.45935e-04 4.00000e-01
2.63e-01 6.32e-01 5.63008e-01 2.13065e-01 2.23927e-01 1.07640e+05 3.20001e+02 7.78725e-05 -1.18139e-04 8.56450e-07 -1.14352e-06 2.53053e-03 -6.99173e-04 4.00000e-01
2.63e-01 5.79e-01 5.63023e-01 2.12610e-01 2.24367e-01 1.07512e+05 3.20001e+02 7.45543e-05 -1.22952e-04 8.12564e-07 -1.18561e-06 2.43106e-03 -8.58413e-04 4.00000e-01
2.63e-01 5.26e-01 5.62956e-01 2.12559e-01 2.24484e-01 1.07360e+05 3.20000e+02 6.92208e-05 -1.27013e-04 7.54152e-07 -1.22941e-06 2.26029e-03 -9.93806e-04 4.00000e-01
2.63e-01 4.74e-01 5.62775e-01 2.13401e-01 2.23825e-01 1.07188e+05 3.19999e+02 6.21396e-05 -1.29107e-04 6.89399e-07 -1.27526e-06 2.02075e-03 -1.06183e-03 4.00000e-01
2.63e-01 4.21e-01 5.62446e-01 2.15141e-01 2.22413e-01 1.07011e+05 3.19997e+02 5.49267e-05 -1.28678e-04 6.32277e-07 -1.31852e-06 1.76975e-03 -1.04522e-03 4.00000e-01
2.63e-01 3.68e-01 5.62001e-01 2.17620e-01 2.20378e-01 1.06841e+05 3.19995e+02 4.85817e-05 -1.26205e-04 5.88988e-07 -1.35910e-06 1.54411e-03 -9.61714e-04 4.00000e-01
2.63e-01 3.16e-01 5.61499e-01 2.20684e-01 2.17817e-01 1.06686e+05 3.19991e+02 4.34258e-05 -1.22414e-04 5.60614e-07 -1.39881e-06 1.35594e-03 -8.36645e-04 4.00000e-01
2.63e-01 2.63e-01 5.61000e-01 2.24242e-01 2.14758e-01 1.06552e+05 3.19984e+02 3.94310e-05 -1.17884e-04 5.46550e-07 -1.43968e-06 1.20418e-03 -6.89918e-04 4.00000e-01
2.63e-01 2.11e-01 5.60564e-01 2.28283e-01 2.11153e-01 1.06442e+05 3.19976e+02 3.64552e-05 -1.12986e-04 5.46375e-07 -1.48385e-06 1.08297e-03 -5.34206e-04 4.00000e-01
2.63e-01 1.58e-01 5.60259e-01 2.32878e-01 2.06863e-01 1.06358e+05 3.19963e+02 3.43543e-05 -1.07928e-04 5.60778e-07 -1.53398e-06 9.85511e-04 -3.76838e-04 4.00000e-01
2.63e-01 1.05e-01 5.60181e-01 2.38185e-01 2.01634e-01 1.06300e+05 3.19945e+02 3.30275e-05 -1.02816e-04 5.92192e-07 -1.59349e-06 9.05242e-04 -2.22088e-04 4.00000e-01
2.63e-01 5.26e-02 5.60511e-01 2.44484e-01 1.95005e-01 1.06271e+05 3.19914e+02 3.24394e-05 -9.77045e-05 6.45697e-07 -1.66674e-06 8.35419e-04 -7.29727e-05 4.00000e-01
2.63e-01 0.00e+00 5.60511e-01 2.44484e-01 1.95005e-01 1.06271e+05 3.19914e+02 3.24394e-05 -9.49912e-05 6.45697e-07 -1.61273e-06 8.35419e-04 -3.09736e-06 4.00000e-01
3.16e-01 1.00e+00 5.57203e-01 2.24668e-01 2.18128e-01 1.07521e+05 3.19978e+02 7.83654e-05 -9.30943e-05 1.13456e-06 -1.15040e-06 2.52397e-03 -3.83808e-06 4.00000e-01
3.16e-01 9.47e-01 5.57203e-01 2.24668e-01 2.18128e-01 1.07521e+05 3.19978e+02 7.83654e-05 -9.41994e-05 1.13456e-06 -1.16640e-06 2.52397e-03 -3.94335e-05 4.00000e-01
3.16e-01 8.95e-01 5.57192e-01 2.24649e-01 2.18159e-01 1.07509e+05 3.19978e+02 7.83028e-05 -9.64530e-05 1.13337e-06 -1.19873e-06 2.52277e-03 -1.12287e-04 4.00000e-01
3.16e-01 8.42e-01 5.57162e-01 2.24586e-01 2.18252e-01 1.07484e+05 3.19978e+02 7.81331e-05 -9.88434e-05 1.12991e-06 -1.23227e-06 2.51977e-03 -1.90122e-04 4.00000e-01
3.16e-01 7.89e-01 5.57110e-01 2.24459e-01 2.18431e-01 1.07444e+05 3.19978e+02 7.77709e-05 -1.01458e-04 1.12258e-06 -1.26774e-06 2.51265e-03 -2.75993e-04 4.00000e-01
3.16e-01 7.37e-01 5.57041e-01 2.24261e-01 2.18698e-01 1.07390e+05 3.19979e+02 7.70790e-05 -1.04356e-04 1.10924e-06 -1.30570e-06 2.49695e-03 -3.72064e-04 4.00000e-01
3.16e-01 6.84e-01 5.56956e-01 2.24009e-01 2.19035e-01 1.07318e+05 3.19978e+02 7.58569e-05 -1.07536e-04 1.08745e-06 -1.34633e-06 2.46558e-03 -4.78457e-04 4.00000e-01
3.16e-01 6.32e-01 5.56851e-01 2.23763e-01 2.19386e-01 1.07227e+05 3.19978e+02 7.38472e-05 -1.10875e-04 1.05485e-06 -1.38929e-06 2.40890e-03 -5.91332e-04 4.00000e-01
3.16e-01 5.79e-01 5.56712e-01 2.23642e-01 2.19646e-01 1.07117e+05 3.19977e+02 7.07897e-05 -1.14066e-04 1.01020e-06 -1.43360e-06 2.31625e-03 -7.00503e-04 4.00000e-01
3.16e-01 5.26e-01 5.56520e-01 2.23844e-01 2.19637e-01 1.06989e+05 3.19976e+02 6.65672e-05 -1.16597e-04 9.55204e-07 -1.47805e-06 2.18077e-03 -7.88384e-04 4.00000e-01
3.16e-01 4.74e-01 5.56290e-01 2.24634e-01 2.19076e-01 1.06849e+05 3.19972e+02 6.14445e-05 -1.17909e-04 8.96590e-07 -1.52240e-06 2.00683e-03 -8.33777e-04 4.00000e-01
3.16e-01 4.21e-01 5.56009e-01 2.26088e-01 2.17903e-01 1.06705e+05 3.19967e+02 5.61226e-05 -1.17702e-04 8.43305e-07 -1.56490e-06 1.81885e-03 -8.26583e-04 4.00000e-01
3.16e-01 3.68e-01 5.55682e-01 2.28155e-01 2.16163e-01 1.06565e+05 3.19958e+02 5.11814e-05 -1.16104e-04 8.01019e-07 -1.60533e-06 1.63864e-03 -7.72358e-04 4.00000e-01
3.16e-01 3.16e-01 5.55331e-01 2.30755e-01 2.13913e-01 1.06435e+05 3.19947e+02 4.69270e-05 -1.13450e-04 7.72165e-07 -1.64461e-06 1.47799e-03 -6.83606e-04 4.00000e-01
3.16e-01 2.63e-01 5.54998e-01 2.33830e-01 2.11172e-01 1.06321e+05 3.19930e+02 4.34583e-05 -1.10083e-04 7.57571e-07 -1.68413e-06 1.34051e-03 -5.72780e-04 4.00000e-01
3.16e-01 2.11e-01 5.54732e-01 2.37370e-01 2.07898e-01 1.06227e+05 3.19907e+02 4.07676e-05 -1.06276e-04 7.57883e-07 -1.72571e-06 1.22510e-03 -4.49555e-04 4.00000e-01
3.16e-01 1.58e-01 5.54596e-01 2.41434e-01 2.03970e-01 1.06153e+05 3.19876e+02 3.88123e-05 -1.02216e-04 7.74604e-07 -1.77194e-06 1.12836e-03 -3.20664e-04 4.00000e-01
3.16e-01 1.05e-01 5.54684e-01 2.46170e-01 1.99146e-01 1.06103e+05 3.19835e+02 3.75594e-05 -9.80284e-05 8.11001e-07 -1.82664e-06 1.04570e-03 -1.90730e-04 4.00000e-01
3.16e-01 5.26e-02 5.55172e-01 2.51852e-01 1.92976e-01 1.06077e+05 3.19776e+02 3.70164e-05 -9.37989e-05 8.73268e-07 -1.89521e-06 9.71215e-04 -6.33031e-05 4.00000e-01
3.16e-01 0.00e+00 5.55172e-01 2.51852e-01 1.92976e-01 1.06077e+05 3.19776e+02 3.70164e-05 -9.15019e-05 8.73268e-07 -1.84102e-06 9.71215e-04 -3.03571e-06 4.00000e-01
3.68e-01 1.00e+00 5.51611e-01 2.34171e-01 2.14219e-01 1.07083e+05 3.19910e+02 7.61756e-05 -8.95984e-05 1.37878e-06 -1.38387e-06 2.46704e-03 -3.70079e-06 4.00000e-01
3.68e-01 9.47e-01 5.51611e-01 2.34171e-01 2.14219e-01 1.07083e+05 3.19910e+02 7.61756e-05 -9.06126e-05 1.37878e-06 -1.40223e-06 2.46704e-03 -3.65466e-05 4.00000e-01
3.68e-01 8.95e-01 5.51599e-01 2.34166e-01 2.14235e-01 1.07071e+05 3.19910e+02 7.60416e-05 -9.26637e-05 1.37639e-06 -1.43940e-06 2.46324e-03 -1.03246e-04 4.00000e-01
3.68e-01 8.42e-01 5.51561e-01 2.34145e-01 2.14294e-01 1.07048e+05 3.19910e+02 7.57346e-05 -9.47872e-05 1.37078e-06 -1.47783e-06 2.45513e-03 -1.72917e-04 4.00000e-01
3.68e-01 7.89e-01 5.51491e-01 2.34097e-01 2.14412e-01 1.07011e+05 3.19910e+02 7.51851e-05 -9.70219e-05 1.36059e-06 -1.51809e-06 2.44091e-03 -2.47150e-04 4.00000e-01
3.68e-01 7.37e-01 5.51383e-01 2.34025e-01 2.14591e-01 1.06961e+05 3.19909e+02 7.42930e-05 -9.93797e-05 1.34408e-06 -1.56047e-06 2.41735e-03 -3.26596e-04 4.00000e-01
3.68e-01 6.84e-01 5.51238e-01 2.33951e-01 2.14811e-01 1.06896e+05 3.19908e+02 7.29301e-05 -1.01822e-04 1.31946e-06 -1.60490e-06 2.37977e-03 -4.10187e-04 4.00000e-01
3.68e-01 6.32e-01 5.51052e-01 2.33924e-01 2.15024e-01 1.06817e+05 3.19905e+02 7.09567e-05 -1.04233e-04 1.28534e-06 -1.65079e-06 2.32248e-03 -4.94162e-04 4.00000e-01
3.68e-01 5.79e-01 5.50823e-01 2.34036e-01 2.15141e-01 1.06722e+05 3.19902e+02 6.82654e-05 -1.06398e-04 1.24159e-06 -1.69718e-06 2.24016e-03 -5.71247e-04 4.00000e-01
3.68e-01 5.26e-01 5.50552e-01 2.34416e-01 2.15032e-01 1.06616e+05 3.19895e+02 6.48561e-05 -1.08024e-04 1.19044e-06 -1.74301e-06 2.13041e-03 -6.30912e-04 4.00000e-01
3.68e-01 4.74e-01 5.50269e-01 2.35230e-01 2.14501e-01 1.06500e+05 3.19885e+02 6.09240e-05 -1.08826e-04 1.13724e-06 -1.78797e-06 1.99645e-03 -6.61754e-04 4.00000e-01
3.68e-01 4.21e-01 5.49981e-01 2.36558e-01 2.13461e-01 1.06381e+05 3.19870e+02 5.68327e-05 -1.08634e-04 1.08851e-06 -1.83135e-06 1.85012e-03 -6.57533e-04 4.00000e-01
3.68e-01 3.68e-01 5.49691e-01 2.38403e-01 2.11906e-01 1.06265e+05 3.19849e+02 5.29269e-05 -1.07477e-04 1.04923e-06 -1.87309e-06 1.70426e-03 -6.19703e-04 4.00000e-01
3.68e-01 3.16e-01 5.49412e-01 2.40731e-01 2.09858e-01 1.06157e+05 3.19820e+02 4.94395e-05 -1.05509e-04 1.02237e-06 -1.91372e-06 1.56794e-03 -5.54558e-04 4.00000e-01
3.68e-01 2.63e-01 5.49170e-01 2.43509e-01 2.07321e-01 1.06061e+05 3.19781e+02 4.64925e-05 -1.02930e-04 1.00962e-06 -1.95421e-06 1.44570e-03 -4.69760e-04 4.00000e-01
3.68e-01 2.11e-01 5.49006e-01 2.46734e-01 2.04260e-01 1.05981e+05 3.19730e+02 4.41341e-05 -9.99274e-05 1.01242e-06 -1.99597e-06 1.33856e-03 -3.72277e-04 4.00000e-01
3.68e-01 1.58e-01 5.48977e-01 2.50455e-01 2.00568e-01 1.05918e+05 3.19665e+02 4.23777e-05 -9.66531e-05 1.03296e-06 -2.04138e-06 1.24516e-03 -2.67690e-04 4.00000e-01
3.68e-01 1.05e-01 5.49172e-01 2.54804e-01 1.96024e-01 1.05874e+05 3.19583e+02 4.12339e-05 -9.32273e-05 1.07520e-06 -2.09443e-06 1.16240e-03 -1.60318e-04 4.00000e-01
3.68e-01 5.26e-02 5.49756e-01 2.60039e-01 1.90205e-01 1.05852e+05 3.19478e+02 4.07413e-05 -8.97497e-05 1.14634e-06 -2.16132e-06 1.08515e-03 -5.37042e-05 4.00000e-01
3.68e-01 0.00e+00 5.49756e-01 2.60039e-01 1.90205e-01 1.05852e+05 3.19478e+02 4.07413e-05 -8.78444e-05 1.14634e-06 -2.10771e-06 1.08515e-03 -2.95529e-06 4.00000e-01
4.21e-01 1.00e+00 5.46089e-01 2.43728e-01 2.10183e-01 1.06641e+05 3.19738e+02 7.41042e-05 -8.61046e-05 1.66134e-06 -1.64684e-06 2.41326e-03 -3.56404e-06 4.00000e-01
4.21e-01 9.47e-01 5.46089e-01 2.43728e-01 2.10183e-01 1.06641e+05 3.19738e+02 7.41042e-05 -8.70044e-05 1.66134e-06 -1.66702e-06 2.41326e-03 -3.28657e-05 4.00000e-01
4.21e-01 8.95e-01 5.46078e-01 2.43735e-01 2.10188e-01 1.06630e+05 3.19738e+02 7.39330e-05 -8.88121e-05 1.65786e-06 -1.70793e-06 2.40797e-03 -9.19850e-05 4.00000e-01
4.21e-01 8.42e-01 5.46039e-01 2.43746e-01 2.10214e-01 1.06608e+05 3.19737e+02 7.35591e-05 -9.06468e-05 1.65037e-06 -1.75007e-06 2.39700e-03 -1.52601e-04 4.00000e-01
4.21e-01 7.89e-01 5.45961e-01 2.43762e-01 2.10277e-01 1.06575e+05 3.19735e+02 7.29302e-05 -9.25173e-05 1.63783e-06 -1.79390e-06 2.37910e-03 -2.15368e-04 4.00000e-01
4.21e-01 7.37e-01 5.45836e-01 2.43789e-01 2.10375e-01 1.06530e+05 3.19733e+02 7.19781e-05 -9.44111e-05 1.61901e-06 -1.83954e-06 2.35212e-03 -2.80165e-04 4.00000e-01
4.21e-01 6.84e-01 5.45660e-01 2.43851e-01 2.10489e-01 1.06473e+05 3.19728e+02 7.06256e-05 -9.62801e-05 1.59273e-06 -1.88680e-06 2.31313e-03 -3.45615e-04 4.00000e-01
4.21e-01 6.32e-01 5.45432e-01 2.43990e-01 2.10578e-01 1.06404e+05 3.19720e+02 6.88022e-05 -9.80298e-05 1.55837e-06 -1.93507e-06 2.25890e-03 -4.08628e-04 4.00000e-01
4.21e-01 5.79e-01 5.45154e-01 2.44276e-01 2.10570e-01 1.06324e+05 3.19709e+02 6.64721e-05 -9.95159e-05 1.51649e-06 -1.98350e-06 2.18676e-03 -4.64186e-04 4.00000e-01
4.21e-01 5.26e-01 5.44837e-01 2.44803e-01 2.10360e-01 1.06234e+05 3.19692e+02 6.36712e-05 -1.00563e-04 1.46941e-06 -2.03127e-06 2.09594e-03 -5.05798e-04 4.00000e-01
4.21e-01 4.74e-01 5.44513e-01 2.45682e-01 2.09805e-01 1.06139e+05 3.19667e+02 6.05390e-05 -1.01015e-04 1.42155e-06 -2.07807e-06 1.98853e-03 -5.26853e-04 4.00000e-01
4.21e-01 4.21e-01 5.44202e-01 2.46987e-01 2.08812e-01 1.06041e+05 3.19633e+02 5.72925e-05 -1.00776e-04 1.37807e-06 -2.12361e-06 1.87084e-03 -5.23349e-04 4.00000e-01
4.21e-01 3.68e-01 5.43915e-01 2.48741e-01 2.07344e-01 1.05944e+05 3.19587e+02 5.41495e-05 -9.98428e-05 1.34335e-06 -2.16786e-06 1.75058e-03 -4.95372e-04 4.00000e-01
4.21e-01 3.16e-01 5.43665e-01 2.50939e-01 2.05396e-01 1.05854e+05 3.19526e+02 5.12796e-05 -9.82936e-05 1.32051e-06 -2.21114e-06 1.63423e-03 -4.46190e-04 4.00000e-01
4.21e-01 2.63e-01 5.43472e-01 2.53565e-01 2.02963e-01 1.05774e+05 3.19449e+02 4.87937e-05 -9.62460e-05 1.31171e-06 -2.25403e-06 1.52589e-03 -3.80577e-04 4.00000e-01
4.21e-01 2.11e-01 5.43371e-01 2.56618e-01 2.00011e-01 1.05706e+05 3.19351e+02 4.67563e-05 -9.38267e-05 1.31887e-06 -2.29757e-06 1.42733e-03 -3.03479e-04 4.00000e-01
4.21e-01 1.58e-01 5.43413e-01 2.60141e-01 1.96447e-01 1.05653e+05 3.19231e+02 4.52058e-05 -9.11551e-05 1.34463e-06 -2.34388e-06 1.33821e-03 -2.19338e-04 4.00000e-01
4.21e-01 1.05e-01 5.43677e-01 2.64251e-01 1.92072e-01 1.05616e+05 3.19087e+02 4.41759e-05 -8.83385e-05 1.39355e-06 -2.39709e-06 1.25636e-03 -1.31941e-04 4.00000e-01
4.21e-01 5.26e-02 5.44313e-01 2.69183e-01 1.86504e-01 1.05597e+05 3.18915e+02 4.37224e-05 -8.54795e-05 1.47365e-06 -2.46416e-06 1.17734e-03 -4.45728e-05 4.00000e-01
4.21e-01 0.00e+00 5.44313e-01 2.69183e-01 1.86504e-01 1.05597e+05 3.18915e+02 4.37224e-05 -8.39302e-05 1.47365e-06 -2.41194e-06 1.17734e-03 -2.85310e-06 4.00000e-01