TITLE =  "Filtration in time=3000.00" 
VARIABLES = "X","Y","S_w","S_n","S_g","P_w","T","uw_x","uw_y","un_x","un_y","ug_x","ug_y","porosity" 
ZONE T = "BIG ZONE", K=20,J=20, F = POINT
0.00e+00 1.00e+00 6.00000e-01 1.50000e-01 2.50000e-01 1.10000e+05 3.20000e+02 5.05684e-05 -1.22550e-04 9.02476e-08 -1.86933e-07 1.58331e-03 -5.01911e-06 4.00000e-01
0.00e+00 9.47e-01 6.00000e-01 1.50000e-01 2.50000e-01 1.10000e+05 3.20000e+02 5.05684e-05 -1.22550e-04 9.02476e-08 -1.86933e-07 1.58331e-03 -5.01911e-06 4.00000e-01
0.00e+00 8.95e-01 6.00000e-01 1.50000e-01 2.50000e-01 1.10000e+05 3.20000e+02 5.12115e-05 -1.22550e-04 9.13954e-08 -1.86933e-07 1.60344e-03 -5.01911e-06 4.00000e-01
0.00e+00 8.42e-01 6.00000e-01 1.50000e-01 2.50000e-01 1.10000e+05 3.20000e+02 5.25995e-05 -1.22550e-04 9.38726e-08 -1.86933e-07 1.64690e-03 -5.01911e-06 4.00000e-01
0.00e+00 7.89e-01 6.00000e-01 1.50000e-01 2.50000e-01 1.10000e+05 3.20000e+02 5.49546e-05 -1.22550e-04 9.80756e-08 -1.86933e-07 1.72064e-03 -5.01911e-06 4.00000e-01
0.00e+00 7.37e-01 6.00000e-01 1.50000e-01 2.50000e-01 1.10000e+05 3.20000e+02 5.87097e-05 -1.22550e-04 1.04777e-07 -1.86933e-07 1.83821e-03 -5.01911e-06 4.00000e-01
0.00e+00 6.84e-01 6.00000e-01 1.50000e-01 2.50000e-01 1.10000e+05 3.20000e+02 6.47296e-05 -1.22550e-04 1.15521e-07 -1.86933e-07 2.02669e-03 -5.01911e-06 4.00000e-01
0.00e+00 6.32e-01 6.00000e-01 1.50000e-01 2.50000e-01 1.10000e+05 3.20000e+02 7.49001e-05 -1.22550e-04 1.33672e-07 -1.86933e-07 2.34514e-03 -5.01911e-06 4.00000e-01
0.00e+00 5.79e-01 6.00000e-01 1.50000e-01 2.50000e-01 1.10000e+05 3.20000e+02 9.38342e-05 -1.22550e-04 1.67463e-07 -1.86933e-07 2.93797e-03 -5.01911e-06 4.00000e-01
0.00e+00 5.26e-01 6.00000e-01 1.50000e-01 2.50000e-01 1.10000e+05 3.20000e+02 1.34357e-04 -2.41067e-04 2.39783e-07 -3.98447e-07 4.20675e-03 -3.71583e-03 4.00000e-01
0.00e+00 4.74e-01 5.84772e-01 1.77287e-01 2.37941e-01 1.08997e+05 3.19974e+02 -0.00000e+00 -2.50450e-04 -0.00000e+00 -9.73043e-07 -0.00000e+00 -4.39236e-03 4.00000e-01
0.00e+00 4.21e-01 5.81413e-01 1.87800e-01 2.30787e-01 1.08704e+05 3.19956e+02 -0.00000e+00 -1.62265e-04 -0.00000e+00 -7.98512e-07 -0.00000e+00 -1.63168e-03 4.00000e-01
0.00e+00 3.68e-01 5.77902e-01 2.00305e-01 2.21793e-01 1.08490e+05 3.19934e+02 -0.00000e+00 -1.45193e-04 -0.00000e+00 -9.56613e-07 -0.00000e+00 -1.12926e-03 4.00000e-01
0.00e+00 3.16e-01 5.74476e-01 2.14065e-01 2.11459e-01 1.08327e+05 3.19907e+02 -0.00000e+00 -1.32721e-04 -0.00000e+00 -1.18067e-06 -0.00000e+00 -7.83963e-04 4.00000e-01
0.00e+00 2.63e-01 5.71217e-01 2.29001e-01 1.99782e-01 1.08204e+05 3.19865e+02 -0.00000e+00 -1.22756e-04 -0.00000e+00 -1.47820e-06 -0.00000e+00 -5.28518e-04 4.00000e-01
0.00e+00 2.11e-01 5.68175e-01 2.45661e-01 1.86164e-01 1.08114e+05 3.19774e+02 -0.00000e+00 -1.14389e-04 -0.00000e+00 -1.87985e-06 -0.00000e+00 -3.34129e-04 4.00000e-01
0.00e+00 1.58e-01 5.65571e-01 2.65223e-01 1.69206e-01 1.08052e+05 3.19512e+02 -0.00000e+00 -1.07182e-04 -0.00000e+00 -2.44769e-06 -0.00000e+00 -1.87511e-04 4.00000e-01
0.00e+00 1.05e-01 5.64120e-01 2.89569e-01 1.46311e-01 1.08013e+05 3.18790e+02 -0.00000e+00 -1.00923e-04 -0.00000e+00 -3.28063e-06 -0.00000e+00 -8.28036e-05 4.00000e-01
0.00e+00 5.26e-02 5.65370e-01 3.20895e-01 1.13735e-01 1.07994e+05 3.17173e+02 -0.00000e+00 -9.55595e-05 -0.00000e+00 -4.48356e-06 -0.00000e+00 -1.78427e-05 4.00000e-01
0.00e+00 0.00e+00 5.65370e-01 3.20895e-01 1.13735e-01 1.07994e+05 3.17173e+02 -0.00000e+00 -9.38538e-05 -0.00000e+00 -4.39011e-06 -0.00000e+00 -1.18837e-06 4.00000e-01
5.26e-02 1.00e+00 5.77617e-01 1.90726e-01 2.31658e-01 1.09786e+05 3.19993e+02 4.69061e-05 -1.06415e-04 2.83137e-07 -5.48953e-07 1.47466e-03 -4.36814e-06 4.00000e-01
5.26e-02 9.47e-01 5.77617e-01 1.90726e-01 2.31658e-01 1.09786e+05 3.19993e+02 4.69061e-05 -1.06694e-04 2.83137e-07 -5.50639e-07 1.47466e-03 -1.31473e-05 4.00000e-01
5.26e-02 8.95e-01 5.77673e-01 1.90528e-01 2.31799e-01 1.09783e+05 3.19994e+02 4.74515e-05 -1.07335e-04 2.85037e-07 -5.51781e-07 1.49290e-03 -3.21305e-05 4.00000e-01
5.26e-02 8.42e-01 5.77855e-01 1.89995e-01 2.32149e-01 1.09777e+05 3.19994e+02 4.86355e-05 -1.08205e-04 2.88258e-07 -5.49477e-07 1.53253e-03 -5.56772e-05 4.00000e-01
5.26e-02 7.89e-01 5.78232e-01 1.89018e-01 2.32750e-01 1.09768e+05 3.19994e+02 5.06380e-05 -1.09497e-04 2.92685e-07 -5.43104e-07 1.59921e-03 -8.85233e-05 4.00000e-01
5.26e-02 7.37e-01 5.78892e-01 1.87434e-01 2.33674e-01 1.09752e+05 3.19994e+02 5.37798e-05 -1.11564e-04 2.98236e-07 -5.32168e-07 1.70339e-03 -1.39971e-04 4.00000e-01
5.26e-02 6.84e-01 5.79956e-01 1.85031e-01 2.35013e-01 1.09726e+05 3.19994e+02 5.86327e-05 -1.15151e-04 3.04990e-07 -5.17273e-07 1.86360e-03 -2.31292e-04 4.00000e-01
5.26e-02 6.32e-01 5.81603e-01 1.81505e-01 2.36893e-01 1.09683e+05 3.19994e+02 6.62470e-05 -1.22115e-04 3.13036e-07 -5.02011e-07 2.11376e-03 -4.18161e-04 4.00000e-01
5.26e-02 5.79e-01 5.84088e-01 1.76463e-01 2.39450e-01 1.09603e+05 3.19994e+02 7.85713e-05 -1.37786e-04 3.22307e-07 -4.99038e-07 2.51589e-03 -8.66074e-04 4.00000e-01
5.26e-02 5.26e-01 5.87622e-01 1.69726e-01 2.42652e-01 1.09432e+05 3.19989e+02 9.89096e-05 -1.79626e-04 3.33313e-07 -5.49707e-07 3.17227e-03 -2.12968e-03 4.00000e-01
5.26e-02 4.74e-01 5.84772e-01 1.77287e-01 2.37941e-01 1.08997e+05 3.19974e+02 1.70455e-05 -1.89412e-04 7.08117e-08 -7.19472e-07 5.37492e-04 -2.46764e-03 4.00000e-01
5.26e-02 4.21e-01 5.81413e-01 1.87800e-01 2.30787e-01 1.08704e+05 3.19956e+02 1.00546e-05 -1.62265e-04 5.48506e-08 -7.98512e-07 3.06659e-04 -1.63168e-03 4.00000e-01
5.26e-02 3.68e-01 5.77902e-01 2.00305e-01 2.21793e-01 1.08490e+05 3.19934e+02 7.05775e-06 -1.45193e-04 5.20746e-08 -9.56613e-07 2.04978e-04 -1.12926e-03 4.00000e-01
5.26e-02 3.16e-01 5.74476e-01 2.14065e-01 2.11459e-01 1.08327e+05 3.19907e+02 5.49391e-06 -1.32721e-04 5.51965e-08 -1.18067e-06 1.49695e-04 -7.83963e-04 4.00000e-01
5.26e-02 2.63e-01 5.71217e-01 2.29001e-01 1.99782e-01 1.08204e+05 3.19865e+02 4.52709e-06 -1.22756e-04 6.20360e-08 -1.47820e-06 1.13730e-04 -5.28518e-04 4.00000e-01
5.26e-02 2.11e-01 5.68175e-01 2.45661e-01 1.86164e-01 1.08114e+05 3.19774e+02 3.84700e-06 -1.14389e-04 7.24542e-08 -1.87985e-06 8.68398e-05 -3.34129e-04 4.00000e-01
5.26e-02 1.58e-01 5.65571e-01 2.65223e-01 1.69206e-01 1.08052e+05 3.19512e+02 3.32610e-06 -1.07182e-04 8.76284e-08 -2.44769e-06 6.44606e-05 -1.87511e-04 4.00000e-01
5.26e-02 1.05e-01 5.64120e-01 2.89569e-01 1.46311e-01 1.08013e+05 3.18790e+02 2.91953e-06 -1.00923e-04 1.10161e-07 -3.28063e-06 4.43483e-05 -8.28036e-05 4.00000e-01
5.26e-02 5.26e-02 5.65370e-01 3.20895e-01 1.13735e-01 1.07994e+05 3.17173e+02 2.64824e-06 -9.55595e-05 1.45092e-07 -4.48356e-06 2.58575e-05 -1.78427e-05 4.00000e-01
5.26e-02 0.00e+00 5.65370e-01 3.20895e-01 1.13735e-01 1.07994e+05 3.17173e+02 2.64824e-06 -9.38538e-05 1.45092e-07 -4.39011e-06 2.58575e-05 -1.18837e-06 4.00000e-01
1.05e-01 1.00e+00 5.62473e-01 2.17876e-01 2.19651e-01 1.09543e+05 3.19835e+02 4.69585e-05 -9.62358e-05 5.67332e-07 -9.93500e-07 1.48333e-03 -3.96270e-06 4.00000e-01
1.05e-01 9.47e-01 5.62473e-01 2.17876e-01 2.19651e-01 1.09543e+05 3.19835e+02 4.69585e-05 -9.67135e-05 5.67332e-07 -9.99271e-07 1.48333e-03 -1.90519e-05 4.00000e-01
1.05e-01 8.95e-01 5.62499e-01 2.17698e-01 2.19802e-01 1.09538e+05 3.19836e+02 4.73731e-05 -9.77508e-05 5.70268e-07 -1.00810e-06 1.49801e-03 -5.13099e-05 4.00000e-01
1.05e-01 8.42e-01 5.62611e-01 2.17185e-01 2.20205e-01 1.09527e+05 3.19839e+02 4.82532e-05 -9.90475e-05 5.74614e-07 -1.01257e-06 1.52970e-03 -9.02128e-05 4.00000e-01
1.05e-01 7.89e-01 5.62882e-01 2.16199e-01 2.20919e-01 1.09509e+05 3.19844e+02 4.96881e-05 -1.00843e-04 5.79198e-07 -1.01178e-06 1.58147e-03 -1.42037e-04 4.00000e-01
1.05e-01 7.37e-01 5.63401e-01 2.14585e-01 2.22014e-01 1.09480e+05 3.19853e+02 5.17940e-05 -1.03513e-04 5.82460e-07 -1.00556e-06 1.65737e-03 -2.17346e-04 4.00000e-01
1.05e-01 6.84e-01 5.64277e-01 2.12162e-01 2.23560e-01 1.09437e+05 3.19866e+02 5.46755e-05 -1.07712e-04 5.81825e-07 -9.95305e-07 1.76114e-03 -3.35593e-04 4.00000e-01
1.05e-01 6.32e-01 5.65635e-01 2.08750e-01 2.25616e-01 1.09371e+05 3.19882e+02 5.82486e-05 -1.14603e-04 5.72214e-07 -9.85222e-07 1.89013e-03 -5.32944e-04 4.00000e-01
1.05e-01 5.79e-01 5.67564e-01 2.04306e-01 2.28130e-01 1.09265e+05 3.19900e+02 6.15360e-05 -1.26003e-04 5.42906e-07 -9.83730e-07 2.01111e-03 -8.68087e-04 4.00000e-01
1.05e-01 5.26e-01 5.69803e-01 1.99636e-01 2.30561e-01 1.09096e+05 3.19911e+02 5.99564e-05 -1.42648e-04 4.70416e-07 -1.00370e-06 1.96815e-03 -1.37032e-03 4.00000e-01
1.05e-01 4.74e-01 5.69357e-01 2.02595e-01 2.28048e-01 1.08839e+05 3.19898e+02 3.52897e-05 -1.48044e-04 2.95564e-07 -1.11691e-06 1.13932e-03 -1.53231e-03 4.00000e-01
1.05e-01 4.21e-01 5.67974e-01 2.08695e-01 2.23331e-01 1.08609e+05 3.19874e+02 2.39498e-05 -1.39981e-04 2.29854e-07 -1.20370e-06 7.51618e-04 -1.26610e-03 4.00000e-01
1.05e-01 3.68e-01 5.66141e-01 2.17139e-01 2.16719e-01 1.08421e+05 3.19840e+02 1.81105e-05 -1.30489e-04 2.08444e-07 -1.33627e-06 5.45107e-04 -9.65940e-04 4.00000e-01
1.05e-01 3.16e-01 5.64062e-01 2.27709e-01 2.08229e-01 1.08272e+05 3.19790e+02 1.46841e-05 -1.21715e-04 2.09778e-07 -1.53611e-06 4.17118e-04 -7.02297e-04 4.00000e-01
1.05e-01 2.63e-01 5.61860e-01 2.40509e-01 1.97630e-01 1.08158e+05 3.19705e+02 1.24068e-05 -1.13859e-04 2.26640e-07 -1.82467e-06 3.25721e-04 -4.82752e-04 4.00000e-01
1.05e-01 2.11e-01 5.59690e-01 2.56102e-01 1.84208e-01 1.08074e+05 3.19515e+02 1.07284e-05 -1.06807e-04 2.58342e-07 -2.24115e-06 2.52258e-04 -3.05005e-04 4.00000e-01
1.05e-01 1.58e-01 5.57940e-01 2.75673e-01 1.66387e-01 1.08017e+05 3.19035e+02 9.40220e-06 -1.00440e-04 3.08521e-07 -2.85358e-06 1.87375e-04 -1.67261e-04 4.00000e-01
1.05e-01 1.05e-01 5.57524e-01 3.01089e-01 1.41387e-01 1.07981e+05 3.17881e+02 8.34245e-06 -9.47020e-05 3.84577e-07 -3.75753e-06 1.26361e-04 -6.99190e-05 4.00000e-01
1.05e-01 5.26e-02 5.59974e-01 3.34113e-01 1.05913e-01 1.07965e+05 3.15600e+02 7.60863e-06 -8.96304e-05 4.98009e-07 -5.02199e-06 6.95075e-05 -1.38258e-05 4.00000e-01
1.05e-01 0.00e+00 5.59974e-01 3.34113e-01 1.05913e-01 1.07965e+05 3.15600e+02 7.60863e-06 -8.82319e-05 4.98009e-07 -4.93046e-06 6.95075e-05 -1.05020e-06 4.00000e-01
1.58e-01 1.00e+00 5.50318e-01 2.40245e-01 2.09437e-01 1.09280e+05 3.19268e+02 4.60098e-05 -8.80094e-05 9.22856e-07 -1.50820e-06 1.45966e-03 -3.63781e-06 4.00000e-01
1.58e-01 9.47e-01 5.50318e-01 2.40245e-01 2.09437e-01 1.09280e+05 3.19268e+02 4.60098e-05 -8.86115e-05 9.22856e-07 -1.52027e-06 1.45966e-03 -2.27401e-05 4.00000e-01
1.58e-01 8.95e-01 5.50322e-01 2.40098e-01 2.09579e-01 1.09273e+05 3.19271e+02 4.62936e-05 -8.98873e-05 9.26215e-07 -1.54195e-06 1.47035e-03 -6.30884e-05 4.00000e-01
1.58e-01 8.42e-01 5.50366e-01 2.39656e-01 2.09977e-01 1.09258e+05 3.19279e+02 4.68766e-05 -9.13957e-05 9.30541e-07 -1.55971e-06 1.49334e-03 -1.10176e-04 4.00000e-01
1.58e-01 7.89e-01 5.50507e-01 2.38787e-01 2.10707e-01 1.09234e+05 3.19295e+02 4.77766e-05 -9.33409e-05 9.33344e-07 -1.57263e-06 1.52971e-03 -1.69663e-04 4.00000e-01
1.58e-01 7.37e-01 5.50813e-01 2.37362e-01 2.11825e-01 1.09197e+05 3.19323e+02 4.89799e-05 -9.59965e-05 9.31315e-07 -1.58052e-06 1.57931e-03 -2.49482e-04 4.00000e-01
1.58e-01 6.84e-01 5.51360e-01 2.35276e-01 2.13364e-01 1.09144e+05 3.19362e+02 5.03679e-05 -9.97350e-05 9.19394e-07 -1.58449e-06 1.63834e-03 -3.61062e-04 4.00000e-01
1.58e-01 6.32e-01 5.52207e-01 2.32492e-01 2.15301e-01 1.09069e+05 3.19412e+02 5.15455e-05 -1.04998e-04 8.89457e-07 -1.58721e-06 1.69318e-03 -5.18834e-04 4.00000e-01
1.58e-01 5.79e-01 5.53348e-01 2.29198e-01 2.17454e-01 1.08962e+05 3.19465e+02 5.14715e-05 -1.12004e-04 8.29156e-07 -1.59276e-06 1.70684e-03 -7.31246e-04 4.00000e-01
1.58e-01 5.26e-01 5.54535e-01 2.26259e-01 2.19206e-01 1.08817e+05 3.19502e+02 4.78902e-05 -1.19606e-04 7.23685e-07 -1.60722e-06 1.59758e-03 -9.63915e-04 4.00000e-01
1.58e-01 4.74e-01 5.54966e-01 2.26900e-01 2.18134e-01 1.08634e+05 3.19491e+02 3.79262e-05 -1.22795e-04 5.77374e-07 -1.66707e-06 1.25072e-03 -1.05030e-03 4.00000e-01
1.58e-01 4.21e-01 5.54772e-01 2.30158e-01 2.15070e-01 1.08456e+05 3.19447e+02 3.01624e-05 -1.20260e-04 4.87571e-07 -1.72949e-06 9.71597e-04 -9.50334e-04 4.00000e-01
1.58e-01 3.68e-01 5.54137e-01 2.35748e-01 2.10115e-01 1.08299e+05 3.19374e+02 2.48678e-05 -1.15249e-04 4.45974e-07 -1.83005e-06 7.72213e-04 -7.75782e-04 4.00000e-01
1.58e-01 3.16e-01 5.53161e-01 2.43847e-01 2.02992e-01 1.08170e+05 3.19262e+02 2.12065e-05 -1.09453e-04 4.40362e-07 -2.00081e-06 6.23906e-04 -5.86484e-04 4.00000e-01
1.58e-01 2.63e-01 5.51939e-01 2.54925e-01 1.93135e-01 1.08070e+05 3.19067e+02 1.85154e-05 -1.03542e-04 4.65347e-07 -2.27664e-06 5.03497e-04 -4.08626e-04 4.00000e-01
1.58e-01 2.11e-01 5.50694e-01 2.69804e-01 1.79502e-01 1.07996e+05 3.18667e+02 1.64006e-05 -9.77552e-05 5.22253e-07 -2.70620e-06 3.96488e-04 -2.54764e-04 4.00000e-01
1.58e-01 1.58e-01 5.49971e-01 2.89800e-01 1.60229e-01 1.07946e+05 3.17784e+02 1.46582e-05 -9.21842e-05 6.17905e-07 -3.35780e-06 2.94125e-04 -1.33054e-04 4.00000e-01
1.58e-01 1.05e-01 5.50806e-01 3.16650e-01 1.32544e-01 1.07917e+05 3.15959e+02 1.32174e-05 -8.68928e-05 7.61844e-07 -4.30401e-06 1.92720e-04 -5.02592e-05 4.00000e-01
1.58e-01 5.26e-02 5.54428e-01 3.51162e-01 9.44100e-02 1.07905e+05 3.12822e+02 1.21473e-05 -8.19990e-05 9.60012e-07 -5.54370e-06 9.82450e-05 -8.67481e-06 4.00000e-01
1.58e-01 0.00e+00 5.54428e-01 3.51162e-01 9.44099e-02 1.07905e+05 3.12822e+02 1.21473e-05 -8.10329e-05 9.60012e-07 -5.46735e-06 9.82450e-05 -8.61039e-07 4.00000e-01
2.11e-01 1.00e+00 5.39607e-01 2.61649e-01 1.98745e-01 1.09001e+05 3.17877e+02 4.45033e-05 -8.00645e-05 1.35963e-06 -2.08953e-06 1.41535e-03 -3.32399e-06 4.00000e-01
2.11e-01 9.47e-01 5.39607e-01 2.61649e-01 1.98745e-01 1.09001e+05 3.17877e+02 4.45033e-05 -8.07172e-05 1.35963e-06 -2.10947e-06 1.41535e-03 -2.40804e-05 4.00000e-01
2.11e-01 8.95e-01 5.39598e-01 2.61527e-01 1.98874e-01 1.08993e+05 3.17882e+02 4.46694e-05 -8.20793e-05 1.36236e-06 -2.14737e-06 1.42227e-03 -6.74323e-05 4.00000e-01
2.11e-01 8.42e-01 5.39595e-01 2.61151e-01 1.99254e-01 1.08975e+05 3.17897e+02 4.49968e-05 -8.36247e-05 1.36475e-06 -2.18226e-06 1.43728e-03 -1.16449e-04 4.00000e-01
2.11e-01 7.89e-01 5.39635e-01 2.60397e-01 1.99968e-01 1.08947e+05 3.17928e+02 4.54666e-05 -8.54986e-05 1.36314e-06 -2.21303e-06 1.46052e-03 -1.75326e-04 4.00000e-01
2.11e-01 7.37e-01 5.39767e-01 2.59163e-01 2.01071e-01 1.08906e+05 3.17981e+02 4.60165e-05 -8.78634e-05 1.35284e-06 -2.23895e-06 1.49022e-03 -2.48835e-04 4.00000e-01
2.11e-01 6.84e-01 5.40040e-01 2.57391e-01 2.02569e-01 1.08849e+05 3.18056e+02 4.64880e-05 -9.08793e-05 1.32749e-06 -2.25975e-06 1.52093e-03 -3.41993e-04 4.00000e-01
2.11e-01 6.32e-01 5.40491e-01 2.55120e-01 2.04389e-01 1.08773e+05 3.18151e+02 4.65427e-05 -9.46277e-05 1.27870e-06 -2.27556e-06 1.54022e-03 -4.57807e-04 4.00000e-01
2.11e-01 5.79e-01 5.41105e-01 2.52592e-01 2.06303e-01 1.08673e+05 3.18248e+02 4.55664e-05 -9.89052e-05 1.19720e-06 -2.28669e-06 1.52451e-03 -5.90507e-04 4.00000e-01
2.11e-01 5.26e-01 5.41767e-01 2.50450e-01 2.07782e-01 1.08549e+05 3.18320e+02 4.27161e-05 -1.02834e-04 1.07854e-06 -2.29492e-06 1.43941e-03 -7.11828e-04 4.00000e-01
2.11e-01 4.74e-01 5.42327e-01 2.50179e-01 2.07494e-01 1.08407e+05 3.18324e+02 3.76756e-05 -1.04681e-04 9.42080e-07 -2.31764e-06 1.26150e-03 -7.58745e-04 4.00000e-01
2.11e-01 4.21e-01 5.42648e-01 2.51868e-01 2.05484e-01 1.08265e+05 3.18267e+02 3.27915e-05 -1.03744e-04 8.39384e-07 -2.34808e-06 1.07757e-03 -7.10721e-04 4.00000e-01
2.11e-01 3.68e-01 5.42701e-01 2.55685e-01 2.01615e-01 1.08136e+05 3.18150e+02 2.87988e-05 -1.00899e-04 7.81882e-07 -2.41360e-06 9.15949e-04 -6.01576e-04 4.00000e-01
2.11e-01 3.16e-01 5.42478e-01 2.62158e-01 1.95363e-01 1.08027e+05 3.17950e+02 2.56491e-05 -9.69773e-05 7.70075e-07 -2.55294e-06 7.74458e-04 -4.64610e-04 4.00000e-01
2.11e-01 2.63e-01 5.42047e-01 2.72151e-01 1.85802e-01 1.07942e+05 3.17584e+02 2.31123e-05 -9.24853e-05 8.05959e-07 -2.81214e-06 6.43228e-04 -3.23517e-04 4.00000e-01
2.11e-01 2.11e-01 5.41689e-01 2.86807e-01 1.71504e-01 1.07880e+05 3.16856e+02 2.09942e-05 -8.76958e-05 8.96016e-07 -3.24455e-06 5.13101e-04 -1.95559e-04 4.00000e-01
2.11e-01 1.58e-01 5.42053e-01 3.07514e-01 1.50434e-01 1.07839e+05 3.15414e+02 1.91790e-05 -8.27630e-05 1.04958e-06 -3.90420e-06 3.78115e-04 -9.45961e-05 4.00000e-01
2.11e-01 1.05e-01 5.44127e-01 3.35555e-01 1.20318e-01 1.07818e+05 3.12812e+02 1.76184e-05 -7.78063e-05 1.27087e-06 -4.81412e-06 2.39051e-04 -3.07742e-05 4.00000e-01
2.11e-01 5.26e-02 5.48589e-01 3.70305e-01 8.11061e-02 1.07810e+05 3.08890e+02 1.63394e-05 -7.30055e-05 1.54169e-06 -5.88803e-06 1.12445e-04 -4.43605e-06 4.00000e-01
2.11e-01 0.00e+00 5.48589e-01 3.70305e-01 8.11061e-02 1.07810e+05 3.08890e+02 1.63394e-05 -7.24572e-05 1.54169e-06 -5.83630e-06 1.12445e-04 -6.62891e-07 4.00000e-01
2.63e-01 1.00e+00 5.29808e-01 2.83885e-01 1.86307e-01 1.08704e+05 3.15250e+02 4.27227e-05 -7.16479e-05 1.88131e-06 -2.69472e-06 1.35756e-03 -2.98901e-06 4.00000e-01
2.63e-01 9.47e-01 5.29808e-01 2.83885e-01 1.86307e-01 1.08704e+05 3.15250e+02 4.27227e-05 -7.22860e-05 1.88131e-06 -2.72282e-06 1.35756e-03 -2.32643e-05 4.00000e-01
2.63e-01 8.95e-01 5.29792e-01 2.83785e-01 1.86423e-01 1.08695e+05 3.15256e+02 4.27961e-05 -7.36032e-05 1.88240e-06 -2.77765e-06 1.36141e-03 -6.52037e-05 4.00000e-01
2.63e-01 8.42e-01 5.29760e-01 2.83465e-01 1.86775e-01 1.08676e+05 3.15277e+02 4.29311e-05 -7.50506e-05 1.88112e-06 -2.83037e-06 1.37016e-03 -1.11335e-04 4.00000e-01
2.63e-01 7.89e-01 5.29731e-01 2.82811e-01 1.87458e-01 1.08646e+05 3.15321e+02 4.30996e-05 -7.67208e-05 1.87311e-06 -2.87960e-06 1.38381e-03 -1.64389e-04 4.00000e-01
2.63e-01 7.37e-01 5.29740e-01 2.81734e-01 1.88526e-01 1.08603e+05 3.15396e+02 4.32395e-05 -7.86971e-05 1.85311e-06 -2.92368e-06 1.40062e-03 -2.26785e-04 4.00000e-01
2.63e-01 6.84e-01 5.29824e-01 2.80200e-01 1.89975e-01 1.08546e+05 3.15505e+02 4.32284e-05 -8.10258e-05 1.81479e-06 -2.96057e-06 1.41609e-03 -2.99938e-04 4.00000e-01
2.63e-01 6.32e-01 5.30015e-01 2.78269e-01 1.91716e-01 1.08473e+05 3.15641e+02 4.28551e-05 -8.36590e-05 1.75121e-06 -2.98767e-06 1.42172e-03 -3.82476e-04 4.00000e-01
2.63e-01 5.79e-01 5.30321e-01 2.76157e-01 1.93521e-01 1.08382e+05 3.15785e+02 4.18181e-05 -8.63586e-05 1.65698e-06 -3.00197e-06 1.40431e-03 -4.66845e-04 4.00000e-01
2.63e-01 5.26e-01 5.30718e-01 2.74323e-01 1.94959e-01 1.08276e+05 3.15901e+02 3.98269e-05 -8.85986e-05 1.53384e-06 -3.00203e-06 1.34887e-03 -5.35287e-04 4.00000e-01
2.63e-01 4.74e-01 5.31223e-01 2.73595e-01 1.95183e-01 1.08159e+05 3.15946e+02 3.69317e-05 -8.96741e-05 1.40157e-06 -2.99717e-06 1.24802e-03 -5.60146e-04 4.00000e-01
2.63e-01 4.21e-01 5.31728e-01 2.74356e-01 1.93916e-01 1.08042e+05 3.15908e+02 3.38739e-05 -8.92073e-05 1.29289e-06 -2.99523e-06 1.12814e-03 -5.29754e-04 4.00000e-01
2.63e-01 3.68e-01 5.32137e-01 2.77073e-01 1.90791e-01 1.07936e+05 3.15772e+02 3.10792e-05 -8.73998e-05 1.22652e-06 -3.02534e-06 1.00474e-03 -4.54743e-04 4.00000e-01
2.63e-01 3.16e-01 5.32393e-01 2.82578e-01 1.85029e-01 1.07845e+05 3.15484e+02 2.86487e-05 -8.45943e-05 1.21456e-06 -3.13237e-06 8.79229e-04 -3.52786e-04 4.00000e-01
2.63e-01 2.63e-01 5.32571e-01 2.92055e-01 1.75374e-01 1.07774e+05 3.14906e+02 2.65417e-05 -8.10750e-05 1.26885e-06 -3.36826e-06 7.46166e-04 -2.42107e-04 4.00000e-01
2.63e-01 2.11e-01 5.33010e-01 3.06829e-01 1.60161e-01 1.07724e+05 3.13783e+02 2.46957e-05 -7.70433e-05 1.40158e-06 -3.77972e-06 5.99484e-04 -1.40152e-04 4.00000e-01
2.63e-01 1.58e-01 5.34366e-01 3.28077e-01 1.37557e-01 1.07692e+05 3.11757e+02 2.30636e-05 -7.26484e-05 1.61996e-06 -4.38864e-06 4.37069e-04 -6.22150e-05 4.00000e-01
2.63e-01 1.05e-01 5.37420e-01 3.56224e-01 1.06356e-01 1.07676e+05 3.08512e+02 2.16030e-05 -6.80348e-05 1.91162e-06 -5.15613e-06 2.67101e-04 -1.74146e-05 4.00000e-01
2.63e-01 5.26e-02 5.42341e-01 3.89189e-01 6.84694e-02 1.07671e+05 3.04174e+02 2.02649e-05 -6.34496e-05 2.22164e-06 -5.94230e-06 1.17958e-04 -2.14849e-06 4.00000e-01
2.63e-01 0.00e+00 5.42341e-01 3.89189e-01 6.84693e-02 1.07671e+05 3.04174e+02 2.02649e-05 -6.31657e-05 2.22164e-06 -5.91118e-06 1.17958e-04 -4.95759e-07 4.00000e-01
3.16e-01 1.00e+00 5.20810e-01 3.07293e-01 1.71897e-01 1.08383e+05 3.11262e+02 4.09221e-05 -6.27028e-05 2.46886e-06 -3.23041e-06 1.29407e-03 -2.62915e-06 4.00000e-01
3.16e-01 9.47e-01 5.20810e-01 3.07293e-01 1.71897e-01 1.08383e+05 3.11262e+02 4.09221e-05 -6.32784e-05 2.46886e-06 -3.26514e-06 1.29407e-03 -2.08303e-05 4.00000e-01
3.16e-01 8.95e-01 5.20791e-01 3.07214e-01 1.71995e-01 1.08374e+05 3.11268e+02 4.09310e-05 -6.44558e-05 2.46763e-06 -3.33378e-06 1.29571e-03 -5.81799e-05 4.00000e-01
3.16e-01 8.42e-01 5.20742e-01 3.06948e-01 1.72310e-01 1.08354e+05 3.11290e+02 4.09368e-05 -6.57170e-05 2.46164e-06 -3.40100e-06 1.30010e-03 -9.83379e-05 4.00000e-01
3.16e-01 7.89e-01 5.20672e-01 3.06387e-01 1.72941e-01 1.08324e+05 3.11337e+02 4.09159e-05 -6.71168e-05 2.44644e-06 -3.46517e-06 1.30749e-03 -1.42920e-04 4.00000e-01
3.16e-01 7.37e-01 5.20602e-01 3.05451e-01 1.73947e-01 1.08282e+05 3.11422e+02 4.08247e-05 -6.86931e-05 2.41705e-06 -3.52387e-06 1.31679e-03 -1.92958e-04 4.00000e-01
3.16e-01 6.84e-01 5.20565e-01 3.04107e-01 1.75328e-01 1.08227e+05 3.11550e+02 4.05898e-05 -7.04459e-05 2.36815e-06 -3.57361e-06 1.32511e-03 -2.48305e-04 4.00000e-01
3.16e-01 6.32e-01 5.20595e-01 3.02403e-01 1.77002e-01 1.08158e+05 3.11715e+02 4.01029e-05 -7.23034e-05 2.29489e-06 -3.60959e-06 1.32733e-03 -3.06549e-04 4.00000e-01
3.16e-01 5.79e-01 5.20721e-01 3.00506e-01 1.78773e-01 1.08076e+05 3.11900e+02 3.92346e-05 -7.40838e-05 2.19501e-06 -3.62619e-06 1.31625e-03 -3.61530e-04 4.00000e-01
3.16e-01 5.26e-01 5.20967e-01 2.98739e-01 1.80294e-01 1.07983e+05 3.12069e+02 3.78931e-05 -7.54817e-05 2.07280e-06 -3.61943e-06 1.28436e-03 -4.02398e-04 4.00000e-01
3.16e-01 4.74e-01 5.21393e-01 2.97660e-01 1.80947e-01 1.07884e+05 3.12182e+02 3.61429e-05 -7.61561e-05 1.94524e-06 -3.59481e-06 1.22668e-03 -4.15068e-04 4.00000e-01
3.16e-01 4.21e-01 5.21942e-01 2.97767e-01 1.80290e-01 1.07787e+05 3.12205e+02 3.42431e-05 -7.58788e-05 1.83708e-06 -3.56612e-06 1.14956e-03 -3.92183e-04 4.00000e-01
3.16e-01 3.68e-01 5.22521e-01 2.99759e-01 1.77720e-01 1.07697e+05 3.12091e+02 3.23885e-05 -7.46449e-05 1.77110e-06 -3.56629e-06 1.05740e-03 -3.37082e-04 4.00000e-01
3.16e-01 3.16e-01 5.23077e-01 3.04724e-01 1.72200e-01 1.07622e+05 3.11738e+02 3.06610e-05 -7.25623e-05 1.76899e-06 -3.64387e-06 9.48165e-04 -2.60066e-04 4.00000e-01
3.16e-01 2.63e-01 5.23722e-01 3.14009e-01 1.62269e-01 1.07563e+05 3.10957e+02 2.90807e-05 -6.97686e-05 1.85100e-06 -3.84797e-06 8.16202e-04 -1.75389e-04 4.00000e-01
3.16e-01 2.11e-01 5.24826e-01 3.28830e-01 1.46344e-01 1.07521e+05 3.09479e+02 2.76497e-05 -6.64030e-05 2.03080e-06 -4.20659e-06 6.57388e-04 -9.86395e-05 4.00000e-01
3.16e-01 1.58e-01 5.26964e-01 3.49798e-01 1.23238e-01 1.07496e+05 3.07037e+02 2.63581e-05 -6.26080e-05 2.30557e-06 -4.70357e-06 4.74655e-04 -4.26318e-05 4.00000e-01
3.16e-01 1.05e-01 5.30694e-01 3.76330e-01 9.29759e-02 1.07482e+05 3.03529e+02 2.51622e-05 -5.85560e-05 2.63947e-06 -5.25817e-06 2.84262e-04 -1.22154e-05 4.00000e-01
3.16e-01 5.26e-02 5.36010e-01 4.05547e-01 5.84425e-02 1.07477e+05 2.99311e+02 2.39597e-05 -5.45222e-05 2.94927e-06 -5.73278e-06 1.22149e-04 -1.64537e-06 4.00000e-01
3.16e-01 0.00e+00 5.36010e-01 4.05547e-01 5.84425e-02 1.07477e+05 2.99311e+02 2.39597e-05 -5.42737e-05 2.94927e-06 -5.70219e-06 1.22149e-04 -3.78494e-07 4.00000e-01
3.68e-01 1.00e+00 5.12740e-01 3.30867e-01 1.56393e-01 1.08028e+05 3.06248e+02 3.93393e-05 -5.37652e-05 3.07860e-06 -3.59234e-06 1.23395e-03 -2.26566e-06 4.00000e-01
3.68e-01 9.47e-01 5.12740e-01 3.30867e-01 1.56393e-01 1.08028e+05 3.06248e+02 3.93393e-05 -5.42527e-05 3.07860e-06 -3.63048e-06 1.23395e-03 -1.75545e-05 4.00000e-01
3.68e-01 8.95e-01 5.12720e-01 3.30809e-01 1.56471e-01 1.08019e+05 3.06252e+02 3.93086e-05 -5.52415e-05 3.07487e-06 -3.70629e-06 1.23416e-03 -4.87202e-05 4.00000e-01
3.68e-01 8.42e-01 5.12665e-01 3.30596e-01 1.56739e-01 1.07999e+05 3.06269e+02 3.92371e-05 -5.62780e-05 3.06406e-06 -3.78092e-06 1.23579e-03 -8.16069e-05 4.00000e-01
3.68e-01 7.89e-01 5.12573e-01 3.30129e-01 1.57298e-01 1.07970e+05 3.06311e+02 3.91085e-05 -5.73923e-05 3.04213e-06 -3.85270e-06 1.23942e-03 -1.17101e-04 4.00000e-01
3.68e-01 7.37e-01 5.12457e-01 3.29333e-01 1.58210e-01 1.07930e+05 3.06391e+02 3.88980e-05 -5.86002e-05 3.00498e-06 -3.91903e-06 1.24467e-03 -1.55557e-04 4.00000e-01
3.68e-01 6.84e-01 5.12343e-01 3.28170e-01 1.59487e-01 1.07878e+05 3.06516e+02 3.85710e-05 -5.98904e-05 2.94884e-06 -3.97590e-06 1.24999e-03 -1.96380e-04 4.00000e-01
3.68e-01 6.32e-01 5.12267e-01 3.26659e-01 1.61074e-01 1.07815e+05 3.06688e+02 3.80847e-05 -6.12057e-05 2.87092e-06 -4.01758e-06 1.25263e-03 -2.37403e-04 4.00000e-01
3.68e-01 5.79e-01 5.12274e-01 3.24902e-01 1.62824e-01 1.07741e+05 3.06897e+02 3.73981e-05 -6.24281e-05 2.77110e-06 -4.03704e-06 1.24872e-03 -2.74219e-04 4.00000e-01
3.68e-01 5.26e-01 5.12412e-01 3.23121e-01 1.64467e-01 1.07659e+05 3.07118e+02 3.64960e-05 -6.33794e-05 2.65443e-06 -4.02860e-06 1.23390e-03 -2.99997e-04 4.00000e-01
3.68e-01 4.74e-01 5.12751e-01 3.21750e-01 1.65500e-01 1.07574e+05 3.07310e+02 3.54234e-05 -6.38666e-05 2.53525e-06 -3.99539e-06 1.20339e-03 -3.06489e-04 4.00000e-01
3.68e-01 4.21e-01 5.13273e-01 3.21373e-01 1.65353e-01 1.07491e+05 3.07420e+02 3.42727e-05 -6.37279e-05 2.43526e-06 -3.95332e-06 1.15534e-03 -2.88638e-04 4.00000e-01
3.68e-01 3.68e-01 5.13914e-01 3.22891e-01 1.63195e-01 1.07415e+05 3.07355e+02 3.31152e-05 -6.28902e-05 2.38049e-06 -3.93725e-06 1.08644e-03 -2.47613e-04 4.00000e-01
3.68e-01 3.16e-01 5.14660e-01 3.27549e-01 1.57791e-01 1.07351e+05 3.06966e+02 3.19905e-05 -6.13612e-05 2.39893e-06 -3.99400e-06 9.90150e-04 -1.90605e-04 4.00000e-01
3.68e-01 2.63e-01 5.15667e-01 3.36632e-01 1.47701e-01 1.07301e+05 3.06044e+02 3.09270e-05 -5.92117e-05 2.51368e-06 -4.16170e-06 8.59641e-04 -1.29049e-04 4.00000e-01
3.68e-01 2.11e-01 5.17296e-01 3.50951e-01 1.31753e-01 1.07264e+05 3.04374e+02 2.99496e-05 -5.65574e-05 2.73268e-06 -4.44644e-06 6.93206e-04 -7.49914e-05 4.00000e-01
3.68e-01 1.58e-01 5.20024e-01 3.70399e-01 1.09577e-01 1.07239e+05 3.01839e+02 2.90664e-05 -5.35462e-05 3.03808e-06 -4.80761e-06 4.99204e-04 -3.62305e-05 4.00000e-01
3.68e-01 1.05e-01 5.24306e-01 3.93687e-01 8.20061e-02 1.07223e+05 2.98539e+02 2.82493e-05 -5.03541e-05 3.37697e-06 -5.15794e-06 2.99284e-04 -1.33584e-05 4.00000e-01
3.68e-01 5.26e-02 5.30255e-01 4.18086e-01 5.16597e-02 1.07214e+05 2.94924e+02 2.74069e-05 -4.71738e-05 3.66389e-06 -5.38998e-06 1.30088e-04 -2.25006e-06 4.00000e-01
3.68e-01 0.00e+00 5.30255e-01 4.18086e-01 5.16596e-02 1.07214e+05 2.94924e+02 2.74069e-05 -4.67645e-05 3.66389e-06 -5.33527e-06 1.30088e-04 -3.07434e-07 4.00000e-01
4.21e-01 1.00e+00 5.05896e-01 3.52736e-01 1.41368e-01 1.07625e+05 3.00898e+02 3.81572e-05 -4.56413e-05 3.65784e-06 -3.73474e-06 1.18541e-03 -1.93189e-06 4.00000e-01
4.21e-01 9.47e-01 5.05896e-01 3.52736e-01 1.41368e-01 1.07625e+05 3.00898e+02 3.81572e-05 -4.60362e-05 3.65784e-06 -3.77259e-06 1.18541e-03 -1.42004e-05 4.00000e-01
4.21e-01 8.95e-01 5.05879e-01 3.52696e-01 1.41425e-01 1.07616e+05 3.00900e+02 3.81057e-05 -4.68312e-05 3.65192e-06 -3.84781e-06 1.18480e-03 -3.90639e-05 4.00000e-01
4.21e-01 8.42e-01 5.05825e-01 3.52531e-01 1.41644e-01 1.07598e+05 3.00910e+02 3.79942e-05 -4.76480e-05 3.63701e-06 -3.92159e-06 1.18485e-03 -6.48786e-05 4.00000e-01
4.21e-01 7.89e-01 5.05725e-01 3.52155e-01 1.42120e-01 1.07570e+05 3.00940e+02 3.78115e-05 -4.85009e-05 3.60974e-06 -3.99239e-06 1.18639e-03 -9.20974e-05 4.00000e-01
4.21e-01 7.37e-01 5.05583e-01 3.51502e-01 1.42915e-01 1.07533e+05 3.01002e+02 3.75455e-05 -4.93958e-05 3.56717e-06 -4.05797e-06 1.18953e-03 -1.20801e-04 4.00000e-01
4.21e-01 6.84e-01 5.05419e-01 3.50528e-01 1.44053e-01 1.07485e+05 3.01107e+02 3.71854e-05 -5.03230e-05 3.50706e-06 -4.11483e-06 1.19369e-03 -1.50422e-04 4.00000e-01
4.21e-01 6.32e-01 5.05266e-01 3.49222e-01 1.45512e-01 1.07428e+05 3.01263e+02 3.67250e-05 -5.12479e-05 3.42843e-06 -4.15772e-06 1.19758e-03 -1.79376e-04 4.00000e-01
4.21e-01 5.79e-01 5.05173e-01 3.47628e-01 1.47199e-01 1.07362e+05 3.01471e+02 3.61685e-05 -5.21034e-05 3.33263e-06 -4.17995e-06 1.19927e-03 -2.04701e-04 4.00000e-01
4.21e-01 5.26e-01 5.05203e-01 3.45882e-01 1.48916e-01 1.07291e+05 3.01718e+02 3.55364e-05 -5.27882e-05 3.22502e-06 -4.17542e-06 1.19607e-03 -2.21964e-04 4.00000e-01
4.21e-01 4.74e-01 5.05430e-01 3.44353e-01 1.50217e-01 1.07216e+05 3.01969e+02 3.48662e-05 -5.31821e-05 3.11853e-06 -4.14588e-06 1.18314e-03 -2.25843e-04 4.00000e-01
4.21e-01 4.21e-01 5.05870e-01 3.43704e-01 1.50426e-01 1.07144e+05 3.02148e+02 3.41901e-05 -5.31602e-05 3.03420e-06 -4.10714e-06 1.15443e-03 -2.12801e-04 4.00000e-01
4.21e-01 3.68e-01 5.06502e-01 3.44967e-01 1.48532e-01 1.07078e+05 3.02127e+02 3.35204e-05 -5.26362e-05 2.99995e-06 -4.09238e-06 1.10140e-03 -1.83650e-04 4.00000e-01
4.21e-01 3.16e-01 5.07366e-01 3.49385e-01 1.43249e-01 1.07023e+05 3.01731e+02 3.28651e-05 -5.15916e-05 3.04489e-06 -4.14131e-06 1.01398e-03 -1.44068e-04 4.00000e-01
4.21e-01 2.63e-01 5.08657e-01 3.57967e-01 1.33376e-01 1.06977e+05 3.00777e+02 3.22442e-05 -5.00819e-05 3.18792e-06 -4.27837e-06 8.85202e-04 -1.02587e-04 4.00000e-01
4.21e-01 2.11e-01 5.10712e-01 3.71000e-01 1.18287e-01 1.06941e+05 2.99146e+02 3.16865e-05 -4.82177e-05 3.42652e-06 -4.49485e-06 7.16370e-04 -6.65468e-05 4.00000e-01
4.21e-01 1.58e-01 5.13942e-01 3.87838e-01 9.82197e-02 1.06911e+05 2.96863e+02 3.12162e-05 -4.61345e-05 3.73125e-06 -4.74495e-06 5.19845e-04 -3.86879e-05 4.00000e-01
4.21e-01 1.05e-01 5.18796e-01 4.07037e-01 7.41670e-02 1.06887e+05 2.94144e+02 3.08466e-05 -4.39552e-05 4.04857e-06 -4.95439e-06 3.18255e-04 -1.77009e-05 4.00000e-01
4.21e-01 5.26e-02 5.25571e-01 4.26675e-01 4.77539e-02 1.06871e+05 2.91391e+02 3.05517e-05 -4.17123e-05 4.31510e-06 -5.04046e-06 1.43768e-04 -3.36240e-06 4.00000e-01
4.21e-01 0.00e+00 5.25571e-01 4.26675e-01 4.77539e-02 1.06871e+05 2.91391e+02 3.05517e-05 -4.10551e-05 4.31510e-06 -4.94765e-06 1.43768e-04 -2.69997e-07 4.00000e-01