TITLE =  "Filtration in time=1000.00" 
VARIABLES = "X","Y","S_w","S_n","S_g","P_w","T","uw_x","uw_y","un_x","un_y","ug_x","ug_y","porosity" 
ZONE T = "BIG ZONE", K=20,J=20, F = POINT
0.00e+00 1.00e+00 6.00000e-01 1.50000e-01 2.50000e-01 1.10000e+05 3.20000e+02 6.20776e-05 -1.22550e-04 1.10788e-07 -1.86933e-07 1.94366e-03 -5.01911e-06 4.00000e-01
0.00e+00 9.47e-01 6.00000e-01 1.50000e-01 2.50000e-01 1.10000e+05 3.20000e+02 6.20776e-05 -1.22550e-04 1.10788e-07 -1.86933e-07 1.94366e-03 -5.01911e-06 4.00000e-01
0.00e+00 8.95e-01 6.00000e-01 1.50000e-01 2.50000e-01 1.10000e+05 3.20000e+02 6.31733e-05 -1.22550e-04 1.12743e-07 -1.86933e-07 1.97797e-03 -5.01911e-06 4.00000e-01
0.00e+00 8.42e-01 6.00000e-01 1.50000e-01 2.50000e-01 1.10000e+05 3.20000e+02 6.54414e-05 -1.22550e-04 1.16791e-07 -1.86933e-07 2.04898e-03 -5.01911e-06 4.00000e-01
0.00e+00 7.89e-01 6.00000e-01 1.50000e-01 2.50000e-01 1.10000e+05 3.20000e+02 6.92738e-05 -1.22550e-04 1.23631e-07 -1.86933e-07 2.16897e-03 -5.01911e-06 4.00000e-01
0.00e+00 7.37e-01 6.00000e-01 1.50000e-01 2.50000e-01 1.10000e+05 3.20000e+02 7.54025e-05 -1.22550e-04 1.34568e-07 -1.86933e-07 2.36087e-03 -5.01911e-06 4.00000e-01
0.00e+00 6.84e-01 6.00000e-01 1.50000e-01 2.50000e-01 1.10000e+05 3.20000e+02 8.51201e-05 -1.22550e-04 1.51911e-07 -1.86933e-07 2.66513e-03 -5.01911e-06 4.00000e-01
0.00e+00 6.32e-01 6.00000e-01 1.50000e-01 2.50000e-01 1.10000e+05 3.20000e+02 1.01290e-04 -1.22550e-04 1.80769e-07 -1.86933e-07 3.17141e-03 -5.01911e-06 4.00000e-01
0.00e+00 5.79e-01 6.00000e-01 1.50000e-01 2.50000e-01 1.10000e+05 3.20000e+02 1.30756e-04 -1.22550e-04 2.33356e-07 -1.86933e-07 4.09400e-03 -5.01911e-06 4.00000e-01
0.00e+00 5.26e-01 6.00000e-01 1.50000e-01 2.50000e-01 1.10000e+05 3.20000e+02 1.92538e-04 -2.96105e-04 3.43616e-07 -4.96672e-07 6.02839e-03 -5.43907e-03 4.00000e-01
0.00e+00 4.74e-01 5.70432e-01 2.04211e-01 2.25356e-01 1.08532e+05 3.19797e+02 -0.00000e+00 -2.88649e-04 -0.00000e+00 -2.34146e-06 -0.00000e+00 -5.89603e-03 4.00000e-01
0.00e+00 4.21e-01 5.62347e-01 2.25301e-01 2.12352e-01 1.08082e+05 3.19612e+02 -0.00000e+00 -1.68374e-04 -0.00000e+00 -2.13499e-06 -0.00000e+00 -2.17208e-03 4.00000e-01
0.00e+00 3.68e-01 5.54152e-01 2.50228e-01 1.95620e-01 1.07746e+05 3.18918e+02 -0.00000e+00 -1.41492e-04 -0.00000e+00 -2.91446e-06 -0.00000e+00 -1.42732e-03 4.00000e-01
0.00e+00 3.16e-01 5.46925e-01 2.80435e-01 1.72641e-01 1.07484e+05 3.16707e+02 -0.00000e+00 -1.20253e-04 -0.00000e+00 -3.99047e-06 -0.00000e+00 -9.08230e-04 4.00000e-01
0.00e+00 2.63e-01 5.41782e-01 3.16894e-01 1.41325e-01 1.07271e+05 3.11798e+02 -0.00000e+00 -1.01205e-04 -0.00000e+00 -5.14366e-06 -0.00000e+00 -5.33940e-04 4.00000e-01
0.00e+00 2.11e-01 5.38475e-01 3.56225e-01 1.05300e-01 1.07085e+05 3.04211e+02 -0.00000e+00 -8.29618e-05 -0.00000e+00 -5.84588e-06 -0.00000e+00 -2.85096e-04 4.00000e-01
0.00e+00 1.58e-01 5.35542e-01 3.90529e-01 7.39295e-02 1.06911e+05 2.95916e+02 -0.00000e+00 -6.59403e-05 -0.00000e+00 -5.75921e-06 -0.00000e+00 -1.41215e-04 4.00000e-01
0.00e+00 1.05e-01 5.31072e-01 4.15990e-01 5.29377e-02 1.06748e+05 2.89529e+02 -0.00000e+00 -5.10435e-05 -0.00000e+00 -5.26199e-06 -0.00000e+00 -6.28106e-05 4.00000e-01
0.00e+00 5.26e-02 5.19819e-01 4.39916e-01 4.02650e-02 1.06636e+05 2.86486e+02 -0.00000e+00 -3.74901e-05 -0.00000e+00 -5.02678e-06 -0.00000e+00 -1.56246e-05 4.00000e-01
0.00e+00 0.00e+00 5.19819e-01 4.39916e-01 4.02650e-02 1.06636e+05 2.86486e+02 -0.00000e+00 -3.38180e-05 -0.00000e+00 -4.45923e-06 -0.00000e+00 -2.01478e-07 4.00000e-01
5.26e-02 1.00e+00 5.59287e-01 2.25231e-01 2.15482e-01 1.09737e+05 3.19238e+02 5.40826e-05 -9.33610e-05 7.61798e-07 -1.12384e-06 1.70333e-03 -3.84665e-06 4.00000e-01
5.26e-02 9.47e-01 5.59287e-01 2.25231e-01 2.15482e-01 1.09737e+05 3.19238e+02 5.40826e-05 -9.37785e-05 7.61798e-07 -1.12971e-06 1.70333e-03 -1.69928e-05 4.00000e-01
5.26e-02 8.95e-01 5.59508e-01 2.24543e-01 2.15949e-01 1.09733e+05 3.19249e+02 5.49835e-05 -9.47963e-05 7.63303e-07 -1.12722e-06 1.73563e-03 -4.43785e-05 4.00000e-01
5.26e-02 8.42e-01 5.59867e-01 2.23657e-01 2.16476e-01 1.09723e+05 3.19277e+02 5.68453e-05 -9.61079e-05 7.74191e-07 -1.12320e-06 1.79721e-03 -7.76782e-05 4.00000e-01
5.26e-02 7.89e-01 5.60489e-01 2.22127e-01 2.17384e-01 1.09707e+05 3.19326e+02 5.99699e-05 -9.80617e-05 7.90069e-07 -1.11136e-06 1.90090e-03 -1.25311e-04 4.00000e-01
5.26e-02 7.37e-01 5.61648e-01 2.19357e-01 2.18995e-01 1.09681e+05 3.19404e+02 6.49400e-05 -1.01214e-04 8.04740e-07 -1.08291e-06 2.06739e-03 -1.99654e-04 4.00000e-01
5.26e-02 6.84e-01 5.63490e-01 2.15274e-01 2.21236e-01 1.09640e+05 3.19511e+02 7.26146e-05 -1.06564e-04 8.19961e-07 -1.04500e-06 2.32192e-03 -3.29590e-04 4.00000e-01
5.26e-02 6.32e-01 5.66461e-01 2.08994e-01 2.24545e-01 1.09572e+05 3.19640e+02 8.46613e-05 -1.16802e-04 8.24346e-07 -9.97805e-07 2.72103e-03 -5.93481e-04 4.00000e-01
5.26e-02 5.79e-01 5.71070e-01 1.99792e-01 2.29138e-01 1.09447e+05 3.19770e+02 1.04104e-04 -1.39507e-04 8.06943e-07 -9.66677e-07 3.36040e-03 -1.22616e-03 4.00000e-01
5.26e-02 5.26e-01 5.77536e-01 1.87599e-01 2.34865e-01 1.09186e+05 3.19866e+02 1.36028e-04 -1.99820e-04 7.64397e-07 -1.03600e-06 4.39614e-03 -3.03278e-03 4.00000e-01
5.26e-02 4.74e-01 5.70432e-01 2.04211e-01 2.25356e-01 1.08532e+05 3.19797e+02 2.52754e-05 -2.09070e-04 2.16093e-07 -1.66109e-06 7.94623e-04 -3.39417e-03 4.00000e-01
5.26e-02 4.21e-01 5.62347e-01 2.25301e-01 2.12352e-01 1.08082e+05 3.19612e+02 1.53835e-05 -1.68374e-04 2.12752e-07 -2.13499e-06 4.59348e-04 -2.17208e-03 4.00000e-01
5.26e-02 3.68e-01 5.54152e-01 2.50228e-01 1.95620e-01 1.07746e+05 3.18918e+02 1.10482e-05 -1.41492e-04 2.50850e-07 -2.91446e-06 3.03852e-04 -1.42732e-03 4.00000e-01
5.26e-02 3.16e-01 5.46925e-01 2.80435e-01 1.72641e-01 1.07484e+05 3.16707e+02 8.96887e-06 -1.20253e-04 3.30844e-07 -3.99047e-06 2.14792e-04 -9.08230e-04 4.00000e-01
5.26e-02 2.63e-01 5.41782e-01 3.16894e-01 1.41325e-01 1.07271e+05 3.11798e+02 8.09087e-06 -1.01205e-04 4.59891e-07 -5.14366e-06 1.53097e-04 -5.33940e-04 4.00000e-01
5.26e-02 2.11e-01 5.38475e-01 3.56225e-01 1.05300e-01 1.07085e+05 3.04211e+02 7.85166e-06 -8.29618e-05 6.20837e-07 -5.84588e-06 1.04235e-04 -2.85096e-04 4.00000e-01
5.26e-02 1.58e-01 5.35542e-01 3.90529e-01 7.39295e-02 1.06911e+05 2.95916e+02 7.67731e-06 -6.59403e-05 7.54006e-07 -5.75921e-06 6.66735e-05 -1.41215e-04 4.00000e-01
5.26e-02 1.05e-01 5.31072e-01 4.15990e-01 5.29377e-02 1.06748e+05 2.89529e+02 7.12519e-06 -5.10435e-05 8.30910e-07 -5.26199e-06 4.15588e-05 -6.28106e-05 4.00000e-01
5.26e-02 5.26e-02 5.19819e-01 4.39916e-01 4.02650e-02 1.06636e+05 2.86486e+02 6.20872e-06 -3.74901e-05 9.59606e-07 -5.02678e-06 2.60768e-05 -1.56246e-05 4.00000e-01
5.26e-02 0.00e+00 5.19819e-01 4.39916e-01 4.02650e-02 1.06636e+05 2.86486e+02 6.20872e-06 -3.38180e-05 9.59606e-07 -4.45923e-06 2.60768e-05 -2.01478e-07 4.00000e-01
1.05e-01 1.00e+00 5.38645e-01 2.67274e-01 1.94080e-01 1.09399e+05 3.16374e+02 5.48276e-05 -7.75947e-05 1.77889e-06 -2.15108e-06 1.72913e-03 -3.22089e-06 4.00000e-01
1.05e-01 9.47e-01 5.38645e-01 2.67274e-01 1.94080e-01 1.09399e+05 3.16374e+02 5.48276e-05 -7.82693e-05 1.77889e-06 -2.17297e-06 1.72913e-03 -2.44962e-05 4.00000e-01
1.05e-01 8.95e-01 5.38771e-01 2.66524e-01 1.94705e-01 1.09390e+05 3.16418e+02 5.55141e-05 -7.98091e-05 1.78015e-06 -2.19641e-06 1.75808e-03 -6.94778e-05 4.00000e-01
1.05e-01 8.42e-01 5.39043e-01 2.65429e-01 1.95528e-01 1.09372e+05 3.16518e+02 5.69562e-05 -8.17688e-05 1.79536e-06 -2.21958e-06 1.81084e-03 -1.23355e-04 4.00000e-01
1.05e-01 7.89e-01 5.39533e-01 2.63608e-01 1.96859e-01 1.09340e+05 3.16693e+02 5.93195e-05 -8.45154e-05 1.81675e-06 -2.23844e-06 1.89672e-03 -1.96270e-04 4.00000e-01
1.05e-01 7.37e-01 5.40465e-01 2.60423e-01 1.99113e-01 1.09292e+05 3.16973e+02 6.29093e-05 -8.86273e-05 1.82862e-06 -2.24032e-06 2.02987e-03 -3.02879e-04 4.00000e-01
1.05e-01 6.84e-01 5.42018e-01 2.55788e-01 2.02194e-01 1.09219e+05 3.17366e+02 6.80019e-05 -9.49657e-05 1.82582e-06 -2.23416e-06 2.21621e-03 -4.68225e-04 4.00000e-01
1.05e-01 6.32e-01 5.44485e-01 2.49185e-01 2.06330e-01 1.09109e+05 3.17856e+02 7.46792e-05 -1.05107e-04 1.77900e-06 -2.21672e-06 2.46071e-03 -7.41312e-04 4.00000e-01
1.05e-01 5.79e-01 5.48096e-01 2.40575e-01 2.11329e-01 1.08938e+05 3.18372e+02 8.17866e-05 -1.21514e-04 1.64820e-06 -2.19773e-06 2.72094e-03 -1.20335e-03 4.00000e-01
1.05e-01 5.26e-01 5.52255e-01 2.31806e-01 2.15939e-01 1.08671e+05 3.18772e+02 8.28752e-05 -1.45198e-04 1.38996e-06 -2.21884e-06 2.76820e-03 -1.90048e-03 4.00000e-01
1.05e-01 4.74e-01 5.50326e-01 2.39174e-01 2.10499e-01 1.08273e+05 3.18658e+02 5.13960e-05 -1.50675e-04 9.96828e-07 -2.67548e-06 1.66389e-03 -2.06136e-03 4.00000e-01
1.05e-01 4.21e-01 5.45881e-01 2.54599e-01 1.99520e-01 1.07915e+05 3.18088e+02 3.62702e-05 -1.36701e-04 9.37346e-07 -3.21614e-06 1.10928e-03 -1.62213e-03 4.00000e-01
1.05e-01 3.68e-01 5.40438e-01 2.77575e-01 1.81987e-01 1.07618e+05 3.16409e+02 2.82830e-05 -1.19783e-04 1.05558e-06 -4.04140e-06 7.83353e-04 -1.14547e-03 4.00000e-01
1.05e-01 3.16e-01 5.35530e-01 3.08077e-01 1.56393e-01 1.07371e+05 3.12599e+02 2.39992e-05 -1.02799e-04 1.31375e-06 -5.05722e-06 5.61337e-04 -7.44143e-04 4.00000e-01
1.05e-01 2.63e-01 5.32017e-01 3.43481e-01 1.24502e-01 1.07156e+05 3.06290e+02 2.19183e-05 -8.63348e-05 1.66584e-06 -5.87612e-06 3.95006e-04 -4.48810e-04 4.00000e-01
1.05e-01 2.11e-01 5.29696e-01 3.77229e-01 9.30755e-02 1.06953e+05 2.98682e+02 2.09880e-05 -7.12152e-05 2.00757e-06 -6.09352e-06 2.69972e-04 -2.58429e-04 4.00000e-01
1.05e-01 1.58e-01 5.27899e-01 4.03252e-01 6.88495e-02 1.06751e+05 2.91944e+02 2.02684e-05 -5.82695e-05 2.24574e-06 -5.76675e-06 1.82601e-04 -1.43600e-04 4.00000e-01
1.05e-01 1.05e-01 5.24270e-01 4.22853e-01 5.28774e-02 1.06566e+05 2.87598e+02 1.90312e-05 -4.68688e-05 2.44348e-06 -5.33501e-06 1.23978e-04 -6.98631e-05 4.00000e-01
1.05e-01 5.26e-02 5.12782e-01 4.45474e-01 4.17444e-02 1.06446e+05 2.85940e+02 1.69937e-05 -3.52362e-05 2.92959e-06 -5.27426e-06 8.18529e-05 -1.77905e-05 4.00000e-01
1.05e-01 0.00e+00 5.12782e-01 4.45474e-01 4.17445e-02 1.06446e+05 2.85940e+02 1.69937e-05 -3.15875e-05 2.92959e-06 -4.64525e-06 8.18529e-05 -2.15862e-07 4.00000e-01
1.58e-01 1.00e+00 5.23222e-01 3.04917e-01 1.71861e-01 1.09005e+05 3.10851e+02 5.26033e-05 -6.32990e-05 2.97379e-06 -3.05687e-06 1.64910e-03 -2.64911e-06 4.00000e-01
1.58e-01 9.47e-01 5.23222e-01 3.04917e-01 1.71861e-01 1.09005e+05 3.10851e+02 5.26033e-05 -6.40704e-05 2.97379e-06 -3.10048e-06 1.64910e-03 -2.68335e-05 4.00000e-01
1.58e-01 8.95e-01 5.23268e-01 3.04099e-01 1.72634e-01 1.08992e+05 3.10937e+02 5.30723e-05 -6.57929e-05 2.97223e-06 -3.16693e-06 1.67397e-03 -7.75293e-05 4.00000e-01
1.58e-01 8.42e-01 5.23399e-01 3.02970e-01 1.73631e-01 1.08966e+05 3.11106e+02 5.40087e-05 -6.79064e-05 2.98727e-06 -3.24256e-06 1.71393e-03 -1.36949e-04 4.00000e-01
1.58e-01 7.89e-01 5.23665e-01 3.01130e-01 1.75205e-01 1.08923e+05 3.11395e+02 5.55143e-05 -7.07527e-05 3.00802e-06 -3.32707e-06 1.77703e-03 -2.14634e-04 4.00000e-01
1.58e-01 7.37e-01 5.24227e-01 2.97903e-01 1.77870e-01 1.08859e+05 3.11873e+02 5.77478e-05 -7.47806e-05 3.01214e-06 -3.40657e-06 1.87430e-03 -3.21966e-04 4.00000e-01
1.58e-01 6.84e-01 5.25228e-01 2.93295e-01 1.81477e-01 1.08767e+05 3.12557e+02 6.07009e-05 -8.04864e-05 2.99055e-06 -3.48949e-06 2.00145e-03 -4.73569e-04 4.00000e-01
1.58e-01 6.32e-01 5.26861e-01 2.86981e-01 1.86158e-01 1.08636e+05 3.13442e+02 6.41199e-05 -8.84824e-05 2.90552e-06 -3.55964e-06 2.15115e-03 -6.89261e-04 4.00000e-01
1.58e-01 5.79e-01 5.29236e-01 2.79280e-01 1.91485e-01 1.08455e+05 3.14424e+02 6.68124e-05 -9.89694e-05 2.70998e-06 -3.59766e-06 2.27668e-03 -9.78489e-04 4.00000e-01
1.58e-01 5.26e-01 5.31825e-01 2.72441e-01 1.95734e-01 1.08214e+05 3.15210e+02 6.54543e-05 -1.10035e-04 2.38371e-06 -3.62099e-06 2.24564e-03 -1.28825e-03 4.00000e-01
1.58e-01 4.74e-01 5.32009e-01 2.75855e-01 1.92137e-01 1.07920e+05 3.15110e+02 5.45938e-05 -1.13213e-04 2.08424e-06 -3.91708e-06 1.81216e-03 -1.35327e-03 4.00000e-01
1.58e-01 4.21e-01 5.30048e-01 2.88738e-01 1.81215e-01 1.07633e+05 3.13933e+02 4.52928e-05 -1.07168e-04 2.06619e-06 -4.42058e-06 1.40173e-03 -1.14969e-03 4.00000e-01
1.58e-01 3.68e-01 5.27063e-01 3.10758e-01 1.62179e-01 1.07373e+05 3.11034e+02 3.87936e-05 -9.65894e-05 2.29586e-06 -5.15108e-06 1.06114e-03 -8.61512e-04 4.00000e-01
1.58e-01 3.16e-01 5.24283e-01 3.39505e-01 1.36212e-01 1.07134e+05 3.06022e+02 3.47312e-05 -8.43871e-05 2.69059e-06 -5.87849e-06 7.83744e-04 -5.97154e-04 4.00000e-01
1.58e-01 2.63e-01 5.22376e-01 3.69454e-01 1.08170e-01 1.06902e+05 2.99595e+02 3.24446e-05 -7.24647e-05 3.11712e-06 -6.26091e-06 5.66277e-04 -3.97953e-04 4.00000e-01
1.58e-01 2.11e-01 5.21526e-01 3.94481e-01 8.39935e-02 1.06661e+05 2.93378e+02 3.11673e-05 -6.20323e-05 3.45011e-06 -6.18045e-06 4.06692e-04 -2.59298e-04 4.00000e-01
1.58e-01 1.58e-01 5.20873e-01 4.12743e-01 6.63842e-02 1.06416e+05 2.88805e+02 3.01135e-05 -5.29568e-05 3.69349e-06 -5.83298e-06 2.94564e-04 -1.59114e-04 4.00000e-01
1.58e-01 1.05e-01 5.17418e-01 4.28654e-01 5.39284e-02 1.06204e+05 2.86282e+02 2.85139e-05 -4.37635e-05 4.03943e-06 -5.51189e-06 2.11883e-04 -8.01963e-05 4.00000e-01
1.58e-01 5.26e-02 5.05062e-01 4.51678e-01 4.32606e-02 1.06079e+05 2.85585e+02 2.57609e-05 -3.30937e-05 5.03015e-06 -5.61374e-06 1.42001e-04 -1.98902e-05 4.00000e-01
1.58e-01 0.00e+00 5.05062e-01 4.51678e-01 4.32606e-02 1.06079e+05 2.85585e+02 2.57609e-05 -2.95272e-05 5.03015e-06 -4.91732e-06 1.42001e-04 -2.30450e-07 4.00000e-01
2.11e-01 1.00e+00 5.10910e-01 3.39709e-01 1.49381e-01 1.08538e+05 3.03664e+02 5.01936e-05 -5.03000e-05 4.19007e-06 -3.58603e-06 1.55649e-03 -2.12285e-06 4.00000e-01
2.11e-01 9.47e-01 5.10910e-01 3.39709e-01 1.49381e-01 1.08538e+05 3.03664e+02 5.01936e-05 -5.10298e-05 4.19007e-06 -3.64695e-06 1.55649e-03 -2.47550e-05 4.00000e-01
2.11e-01 8.95e-01 5.10894e-01 3.38871e-01 1.50235e-01 1.08523e+05 3.03775e+02 5.04769e-05 -5.26354e-05 4.18286e-06 -3.75188e-06 1.57776e-03 -7.15793e-05 4.00000e-01
2.11e-01 8.42e-01 5.10900e-01 3.37939e-01 1.51162e-01 1.08492e+05 3.03948e+02 5.09746e-05 -5.45083e-05 4.19349e-06 -3.87645e-06 1.60473e-03 -1.25141e-04 4.00000e-01
2.11e-01 7.89e-01 5.10947e-01 3.36421e-01 1.52632e-01 1.08443e+05 3.04241e+02 5.17587e-05 -5.69366e-05 4.20716e-06 -4.02352e-06 1.64669e-03 -1.93199e-04 4.00000e-01
2.11e-01 7.37e-01 5.11144e-01 3.33633e-01 1.55223e-01 1.08370e+05 3.04754e+02 5.29291e-05 -6.02254e-05 4.20060e-06 -4.18206e-06 1.71365e-03 -2.82932e-04 4.00000e-01
2.11e-01 6.84e-01 5.11592e-01 3.29739e-01 1.58669e-01 1.08269e+05 3.05493e+02 5.43977e-05 -6.46036e-05 4.16888e-06 -4.36300e-06 1.79683e-03 -4.01530e-04 4.00000e-01
2.11e-01 6.32e-01 5.12444e-01 3.24350e-01 1.63205e-01 1.08132e+05 3.06499e+02 5.60415e-05 -7.03054e-05 4.07790e-06 -4.54225e-06 1.89374e-03 -5.55830e-04 4.00000e-01
2.11e-01 5.79e-01 5.13832e-01 3.17704e-01 1.68464e-01 1.07954e+05 3.07699e+02 5.73228e-05 -7.70390e-05 3.89063e-06 -4.67515e-06 1.97925e-03 -7.36746e-04 4.00000e-01
2.11e-01 5.26e-01 5.15544e-01 3.11790e-01 1.72666e-01 1.07737e+05 3.08738e+02 5.69468e-05 -8.32446e-05 3.60880e-06 -4.74107e-06 1.98669e-03 -8.97172e-04 4.00000e-01
2.11e-01 4.74e-01 5.16448e-01 3.13752e-01 1.69800e-01 1.07493e+05 3.08674e+02 5.31255e-05 -8.53268e-05 3.41926e-06 -4.94603e-06 1.78865e-03 -9.26194e-04 4.00000e-01
2.11e-01 4.21e-01 5.16071e-01 3.25269e-01 1.58659e-01 1.07246e+05 3.07024e+02 4.84198e-05 -8.24071e-05 3.48564e-06 -5.34254e-06 1.49689e-03 -8.22031e-04 4.00000e-01
2.11e-01 3.68e-01 5.15015e-01 3.44996e-01 1.39990e-01 1.07002e+05 3.03529e+02 4.43379e-05 -7.62668e-05 3.77866e-06 -5.85471e-06 1.18929e-03 -6.63602e-04 4.00000e-01
2.11e-01 3.16e-01 5.14125e-01 3.68445e-01 1.17429e-01 1.06751e+05 2.98633e+02 4.14363e-05 -6.89744e-05 4.16723e-06 -6.25937e-06 9.14419e-04 -5.11132e-04 4.00000e-01
2.11e-01 2.63e-01 5.13986e-01 3.90046e-01 9.59672e-02 1.06481e+05 2.93515e+02 3.96751e-05 -6.20157e-05 4.51731e-06 -6.38853e-06 6.96082e-04 -3.83850e-04 4.00000e-01
2.11e-01 2.11e-01 5.14475e-01 4.06725e-01 7.87998e-02 1.06189e+05 2.89383e+02 3.86577e-05 -5.57310e-05 4.79445e-06 -6.25958e-06 5.33736e-04 -2.76364e-04 4.00000e-01
2.11e-01 1.58e-01 5.14129e-01 4.19848e-01 6.60231e-02 1.05903e+05 2.86788e+02 3.77614e-05 -4.92226e-05 5.11133e-06 -6.00884e-06 4.11268e-04 -1.79201e-04 4.00000e-01
2.11e-01 1.05e-01 5.10062e-01 4.34389e-01 5.55490e-02 1.05672e+05 2.85533e+02 3.62217e-05 -4.11579e-05 5.74126e-06 -5.81058e-06 3.08032e-04 -9.06738e-05 4.00000e-01
2.11e-01 5.26e-02 4.96132e-01 4.59199e-01 4.46687e-02 1.05543e+05 2.85418e+02 3.29817e-05 -3.09369e-05 7.48769e-06 -6.10287e-06 2.07183e-04 -2.17399e-05 4.00000e-01
2.11e-01 0.00e+00 4.96132e-01 4.59199e-01 4.46687e-02 1.05543e+05 2.85418e+02 3.29817e-05 -2.75148e-05 7.48769e-06 -5.32598e-06 2.07183e-04 -2.43685e-07 4.00000e-01
2.63e-01 1.00e+00 5.01381e-01 3.68678e-01 1.29941e-01 1.07971e+05 2.96680e+02 4.85540e-05 -3.99462e-05 5.30043e-06 -3.72306e-06 1.49051e-03 -1.69971e-06 4.00000e-01
2.63e-01 9.47e-01 5.01381e-01 3.68678e-01 1.29941e-01 1.07971e+05 2.96680e+02 4.85540e-05 -4.05674e-05 5.30043e-06 -3.79087e-06 1.49051e-03 -2.07706e-05 4.00000e-01
2.63e-01 8.95e-01 5.01313e-01 3.67919e-01 1.30768e-01 1.07955e+05 2.96785e+02 4.87021e-05 -4.19097e-05 5.28750e-06 -3.91447e-06 1.50900e-03 -5.98943e-05 4.00000e-01
2.63e-01 8.42e-01 5.01232e-01 3.67321e-01 1.31447e-01 1.07922e+05 2.96902e+02 4.88980e-05 -4.33921e-05 5.29130e-06 -4.06044e-06 1.52556e-03 -1.03633e-04 4.00000e-01
2.63e-01 7.89e-01 5.01113e-01 3.66308e-01 1.32579e-01 1.07871e+05 2.97106e+02 4.91981e-05 -4.52305e-05 5.29366e-06 -4.23251e-06 1.55203e-03 -1.57449e-04 4.00000e-01
2.63e-01 7.37e-01 5.01014e-01 3.64295e-01 1.34691e-01 1.07795e+05 2.97494e+02 4.96715e-05 -4.76054e-05 5.27530e-06 -4.42412e-06 1.59748e-03 -2.25355e-04 4.00000e-01
2.63e-01 6.84e-01 5.01011e-01 3.61602e-01 1.37386e-01 1.07693e+05 2.98044e+02 5.02267e-05 -5.06037e-05 5.23846e-06 -4.64878e-06 1.65077e-03 -3.10805e-04 4.00000e-01
2.63e-01 6.32e-01 5.01218e-01 3.57724e-01 1.41057e-01 1.07559e+05 2.98843e+02 5.08926e-05 -5.43763e-05 5.16005e-06 -4.88871e-06 1.71649e-03 -4.17140e-04 4.00000e-01
2.63e-01 5.79e-01 5.01805e-01 3.52661e-01 1.45534e-01 1.07390e+05 2.99888e+02 5.15850e-05 -5.87215e-05 5.02306e-06 -5.10030e-06 1.78587e-03 -5.36094e-04 4.00000e-01
2.63e-01 5.26e-01 5.02841e-01 3.47822e-01 1.49337e-01 1.07190e+05 3.00895e+02 5.19458e-05 -6.27616e-05 4.84237e-06 -5.24054e-06 1.82438e-03 -6.38558e-04 4.00000e-01
2.63e-01 4.74e-01 5.03922e-01 3.49282e-01 1.46796e-01 1.06970e+05 3.00820e+02 5.09250e-05 -6.45974e-05 4.77077e-06 -5.43442e-06 1.72293e-03 -6.68237e-04 4.00000e-01
2.63e-01 4.21e-01 5.04592e-01 3.58866e-01 1.36541e-01 1.06736e+05 2.99135e+02 4.89380e-05 -6.37854e-05 4.89745e-06 -5.74585e-06 1.50596e-03 -6.29616e-04 4.00000e-01
2.63e-01 3.68e-01 5.05092e-01 3.74067e-01 1.20841e-01 1.06483e+05 2.96047e+02 4.68508e-05 -6.12777e-05 5.16456e-06 -6.10139e-06 1.24665e-03 -5.58449e-04 4.00000e-01
2.63e-01 3.16e-01 5.05864e-01 3.90318e-01 1.03818e-01 1.06199e+05 2.92397e+02 4.52733e-05 -5.82019e-05 5.46144e-06 -6.36863e-06 1.00675e-03 -4.77638e-04 4.00000e-01
2.63e-01 2.63e-01 5.06994e-01 4.04216e-01 8.87906e-02 1.05880e+05 2.89162e+02 4.43598e-05 -5.50596e-05 5.73781e-06 -6.48044e-06 8.12123e-04 -3.92268e-04 4.00000e-01
2.63e-01 2.11e-01 5.07790e-01 4.15416e-01 7.67939e-02 1.05542e+05 2.86922e+02 4.38894e-05 -5.14502e-05 6.05611e-06 -6.45864e-06 6.59270e-04 -3.00214e-04 4.00000e-01
2.63e-01 1.58e-01 5.06723e-01 4.26372e-01 6.69051e-02 1.05225e+05 2.85692e+02 4.34592e-05 -4.63650e-05 6.60539e-06 -6.37479e-06 5.32283e-04 -2.01194e-04 4.00000e-01
2.63e-01 1.05e-01 5.01350e-01 4.41345e-01 5.73043e-02 1.04977e+05 2.85182e+02 4.24126e-05 -3.89098e-05 7.75556e-06 -6.35016e-06 4.12253e-04 -1.03215e-04 4.00000e-01
2.63e-01 5.26e-02 4.84580e-01 4.69581e-01 4.58384e-02 1.04839e+05 2.85359e+02 3.88164e-05 -2.85779e-05 1.07912e-05 -6.90941e-06 2.79210e-04 -2.44455e-05 4.00000e-01
2.63e-01 0.00e+00 4.84580e-01 4.69581e-01 4.58384e-02 1.04839e+05 2.85359e+02 3.88164e-05 -2.52147e-05 1.07912e-05 -5.97444e-06 2.79210e-04 -2.54137e-07 4.00000e-01
3.16e-01 1.00e+00 4.94185e-01 3.90071e-01 1.15743e-01 1.07279e+05 2.91317e+02 4.78434e-05 -3.27813e-05 6.30781e-06 -3.68855e-06 1.46354e-03 -1.40689e-06 4.00000e-01
3.16e-01 9.47e-01 4.94185e-01 3.90071e-01 1.15743e-01 1.07279e+05 2.91317e+02 4.78434e-05 -3.32926e-05 6.30781e-06 -3.75597e-06 1.46354e-03 -1.70490e-05 4.00000e-01
3.16e-01 8.95e-01 4.94080e-01 3.89465e-01 1.16455e-01 1.07263e+05 2.91389e+02 4.78968e-05 -3.43737e-05 6.29018e-06 -3.88241e-06 1.47962e-03 -4.92758e-05 4.00000e-01
3.16e-01 8.42e-01 4.93961e-01 3.89145e-01 1.16894e-01 1.07230e+05 2.91443e+02 4.79272e-05 -3.55266e-05 6.28696e-06 -4.02869e-06 1.48965e-03 -8.47032e-05 4.00000e-01
3.16e-01 7.89e-01 4.93754e-01 3.88557e-01 1.17688e-01 1.07178e+05 2.91547e+02 4.79633e-05 -3.68784e-05 6.27849e-06 -4.19615e-06 1.50687e-03 -1.26558e-04 4.00000e-01
3.16e-01 7.37e-01 4.93475e-01 3.87289e-01 1.19236e-01 1.07105e+05 2.91766e+02 4.80467e-05 -3.85253e-05 6.24982e-06 -4.38115e-06 1.53898e-03 -1.77329e-04 4.00000e-01
3.16e-01 6.84e-01 4.93198e-01 3.85700e-01 1.21102e-01 1.07006e+05 2.92065e+02 4.81171e-05 -4.05037e-05 6.20833e-06 -4.59668e-06 1.57460e-03 -2.38871e-04 4.00000e-01
3.16e-01 6.32e-01 4.92974e-01 3.83318e-01 1.23709e-01 1.06879e+05 2.92534e+02 4.82531e-05 -4.29272e-05 6.14124e-06 -4.83514e-06 1.62149e-03 -3.13716e-04 4.00000e-01
3.16e-01 5.79e-01 4.92964e-01 3.80034e-01 1.27002e-01 1.06720e+05 2.93207e+02 4.85536e-05 -4.57522e-05 6.04898e-06 -5.07310e-06 1.67820e-03 -3.98506e-04 4.00000e-01
3.16e-01 5.26e-01 4.93408e-01 3.76654e-01 1.29939e-01 1.06532e+05 2.93924e+02 4.90592e-05 -4.86512e-05 5.95525e-06 -5.28047e-06 1.72573e-03 -4.79795e-04 4.00000e-01
3.16e-01 4.74e-01 4.94435e-01 3.77885e-01 1.27681e-01 1.06319e+05 2.93800e+02 4.90874e-05 -5.06271e-05 5.96301e-06 -5.52140e-06 1.66546e-03 -5.25013e-04 4.00000e-01
3.16e-01 4.21e-01 4.95765e-01 3.84804e-01 1.19431e-01 1.06078e+05 2.92493e+02 4.85221e-05 -5.14747e-05 6.10059e-06 -5.83773e-06 1.49913e-03 -5.32743e-04 4.00000e-01
3.16e-01 3.68e-01 4.97285e-01 3.94884e-01 1.07831e-01 1.05800e+05 2.90417e+02 4.77632e-05 -5.15963e-05 6.31326e-06 -6.18480e-06 1.28974e-03 -5.13377e-04 4.00000e-01
3.16e-01 3.16e-01 4.98870e-01 4.05122e-01 9.60077e-02 1.05477e+05 2.88292e+02 4.71943e-05 -5.12811e-05 6.55721e-06 -6.49209e-06 1.09054e-03 -4.71864e-04 4.00000e-01
3.16e-01 2.63e-01 5.00077e-01 4.14286e-01 8.56363e-02 1.05117e+05 2.86658e+02 4.69270e-05 -5.03642e-05 6.86535e-06 -6.73036e-06 9.20969e-04 -4.09436e-04 4.00000e-01
3.16e-01 2.11e-01 5.00011e-01 4.23297e-01 7.66927e-02 1.04748e+05 2.85668e+02 4.68895e-05 -4.82543e-05 7.37629e-06 -6.92763e-06 7.77747e-04 -3.27666e-04 4.00000e-01
3.16e-01 1.58e-01 4.97304e-01 4.34498e-01 6.81985e-02 1.04403e+05 2.85198e+02 4.70734e-05 -4.41482e-05 8.39662e-06 -7.14870e-06 6.51388e-04 -2.30601e-04 4.00000e-01
3.16e-01 1.05e-01 4.89438e-01 4.51734e-01 5.88277e-02 1.04123e+05 2.85069e+02 4.68024e-05 -3.71789e-05 1.05429e-05 -7.51259e-06 5.23303e-04 -1.26939e-04 4.00000e-01
3.16e-01 5.26e-02 4.65961e-01 4.87344e-01 4.66946e-02 1.03950e+05 2.85333e+02 4.27845e-05 -2.55235e-05 1.66233e-05 -8.65777e-06 3.67104e-04 -3.15631e-05 4.00000e-01
3.16e-01 0.00e+00 4.65961e-01 4.87344e-01 4.66946e-02 1.03950e+05 2.85333e+02 4.27845e-05 -2.18754e-05 1.66233e-05 -7.24034e-06 3.67104e-04 -2.60896e-07 4.00000e-01
3.68e-01 1.00e+00 4.87999e-01 4.05305e-01 1.06696e-01 1.06459e+05 2.87933e+02 4.75689e-05 -2.82277e-05 7.31299e-06 -3.70190e-06 1.46502e-03 -1.22504e-06 4.00000e-01
3.68e-01 9.47e-01 4.87999e-01 4.05305e-01 1.06696e-01 1.06459e+05 2.87933e+02 4.75689e-05 -2.86582e-05 7.31299e-06 -3.76808e-06 1.46502e-03 -1.44817e-05 4.00000e-01
3.68e-01 8.95e-01 4.87878e-01 4.04834e-01 1.07289e-01 1.06444e+05 2.87973e+02 4.75628e-05 -2.95519e-05 7.29117e-06 -3.89406e-06 1.47919e-03 -4.20847e-05 4.00000e-01
3.68e-01 8.42e-01 4.87756e-01 4.04652e-01 1.07592e-01 1.06411e+05 2.87992e+02 4.75195e-05 -3.04955e-05 7.28226e-06 -4.03755e-06 1.48594e-03 -7.20804e-05 4.00000e-01
3.68e-01 7.89e-01 4.87522e-01 4.04327e-01 1.08151e-01 1.06361e+05 2.88031e+02 4.74326e-05 -3.15395e-05 7.26675e-06 -4.19651e-06 1.49809e-03 -1.06229e-04 4.00000e-01
3.68e-01 7.37e-01 4.87165e-01 4.03560e-01 1.09275e-01 1.06289e+05 2.88125e+02 4.73260e-05 -3.27444e-05 7.23164e-06 -4.36936e-06 1.52261e-03 -1.46635e-04 4.00000e-01
3.68e-01 6.84e-01 4.86767e-01 4.02673e-01 1.10560e-01 1.06195e+05 2.88247e+02 4.71799e-05 -3.41345e-05 7.18838e-06 -4.56770e-06 1.54914e-03 -1.94440e-04 4.00000e-01
3.68e-01 6.32e-01 4.86326e-01 4.01334e-01 1.12340e-01 1.06074e+05 2.88455e+02 4.70584e-05 -3.57814e-05 7.12999e-06 -4.78949e-06 1.58533e-03 -2.51837e-04 4.00000e-01
3.68e-01 5.79e-01 4.85971e-01 3.99438e-01 1.14590e-01 1.05923e+05 2.88780e+02 4.70870e-05 -3.77334e-05 7.06359e-06 -5.02976e-06 1.63168e-03 -3.19209e-04 4.00000e-01
3.68e-01 5.26e-01 4.85983e-01 3.97441e-01 1.16576e-01 1.05742e+05 2.89147e+02 4.74063e-05 -3.99740e-05 7.01354e-06 -5.28443e-06 1.67477e-03 -3.92962e-04 4.00000e-01
3.68e-01 4.74e-01 4.86817e-01 3.98466e-01 1.14718e-01 1.05526e+05 2.89000e+02 4.76727e-05 -4.20910e-05 7.05040e-06 -5.59422e-06 1.63288e-03 -4.52008e-04 4.00000e-01
3.68e-01 4.21e-01 4.88276e-01 4.03003e-01 1.08722e-01 1.05271e+05 2.88213e+02 4.76820e-05 -4.39181e-05 7.17794e-06 -5.97789e-06 1.50278e-03 -4.86357e-04 4.00000e-01
3.68e-01 3.68e-01 4.89901e-01 4.09448e-01 1.00651e-01 1.04968e+05 2.87126e+02 4.75154e-05 -4.54263e-05 7.37062e-06 -6.40843e-06 1.33259e-03 -4.93704e-04 4.00000e-01
3.68e-01 3.16e-01 4.91134e-01 4.16453e-01 9.24128e-02 1.04619e+05 2.86152e+02 4.73535e-05 -4.64435e-05 7.65364e-06 -6.85667e-06 1.16366e-03 -4.73763e-04 4.00000e-01
3.68e-01 2.63e-01 4.91241e-01 4.24083e-01 8.46762e-02 1.04236e+05 2.85497e+02 4.72791e-05 -4.65792e-05 8.13605e-06 -7.33797e-06 1.01132e-03 -4.27996e-04 4.00000e-01
3.68e-01 2.11e-01 4.89169e-01 4.33701e-01 7.71305e-02 1.03842e+05 2.85152e+02 4.72785e-05 -4.54224e-05 9.05014e-06 -7.96066e-06 8.74611e-04 -3.62121e-04 4.00000e-01
3.68e-01 1.58e-01 4.83069e-01 4.47832e-01 6.90989e-02 1.03456e+05 2.85050e+02 4.77793e-05 -4.22247e-05 1.10495e-05 -8.91930e-06 7.56532e-04 -2.78886e-04 4.00000e-01
3.68e-01 1.05e-01 4.68199e-01 4.72309e-01 5.94928e-02 1.03105e+05 2.85057e+02 4.69110e-05 -3.56635e-05 1.56151e-05 -1.07820e-05 6.28557e-04 -1.83089e-04 4.00000e-01
3.68e-01 5.26e-02 4.16754e-01 5.34568e-01 4.86777e-02 1.02816e+05 2.85384e+02 3.73536e-05 -1.88267e-05 3.51007e-05 -1.56357e-05 5.14729e-04 -5.69601e-05 4.00000e-01
3.68e-01 0.00e+00 4.16754e-01 5.34568e-01 4.86778e-02 1.02816e+05 2.85384e+02 3.73536e-05 -1.47134e-05 3.51007e-05 -1.17705e-05 5.14729e-04 -2.78833e-07 4.00000e-01
4.21e-01 1.00e+00 4.81092e-01 4.17586e-01 1.01322e-01 1.05534e+05 2.86153e+02 4.70136e-05 -2.52631e-05 8.47704e-06 -3.88385e-06 1.47591e-03 -1.11520e-06 4.00000e-01
4.21e-01 9.47e-01 4.81092e-01 4.17586e-01 1.01322e-01 1.05534e+05 2.86153e+02 4.70136e-05 -2.56354e-05 8.47704e-06 -3.95099e-06 1.47591e-03 -1.28038e-05 4.00000e-01
4.21e-01 8.95e-01 4.80963e-01 4.17220e-01 1.01817e-01 1.05519e+05 2.86170e+02 4.69643e-05 -2.63973e-05 8.45095e-06 -4.08028e-06 1.48823e-03 -3.73771e-05 4.00000e-01
4.21e-01 8.42e-01 4.80841e-01 4.17118e-01 1.02041e-01 1.05488e+05 2.86170e+02 4.68749e-05 -2.72052e-05 8.43661e-06 -4.22710e-06 1.49283e-03 -6.40463e-05 4.00000e-01
4.21e-01 7.89e-01 4.80592e-01 4.16933e-01 1.02475e-01 1.05438e+05 2.86182e+02 4.67277e-05 -2.80748e-05 8.41699e-06 -4.38808e-06 1.50204e-03 -9.37960e-05 4.00000e-01
4.21e-01 7.37e-01 4.80190e-01 4.16478e-01 1.03332e-01 1.05369e+05 2.86212e+02 4.65180e-05 -2.90404e-05 8.37917e-06 -4.56317e-06 1.52142e-03 -1.28661e-04 4.00000e-01
4.21e-01 6.84e-01 4.79712e-01 4.16008e-01 1.04280e-01 1.05278e+05 2.86245e+02 4.62623e-05 -3.01358e-05 8.33849e-06 -4.76503e-06 1.54252e-03 -1.69784e-04 4.00000e-01
4.21e-01 6.32e-01 4.79132e-01 4.15297e-01 1.05571e-01 1.05160e+05 2.86315e+02 4.60095e-05 -3.14064e-05 8.29205e-06 -4.99461e-06 1.57222e-03 -2.19133e-04 4.00000e-01
4.21e-01 5.79e-01 4.78543e-01 4.14327e-01 1.07131e-01 1.05014e+05 2.86430e+02 4.58466e-05 -3.29119e-05 8.24737e-06 -5.25627e-06 1.61015e-03 -2.78614e-04 4.00000e-01
4.21e-01 5.26e-01 4.78195e-01 4.13375e-01 1.08430e-01 1.04834e+05 2.86555e+02 4.58967e-05 -3.47397e-05 8.22447e-06 -5.56204e-06 1.64503e-03 -3.48436e-04 4.00000e-01
4.21e-01 4.74e-01 4.78600e-01 4.14358e-01 1.07042e-01 1.04614e+05 2.86442e+02 4.60388e-05 -3.67662e-05 8.28153e-06 -5.94802e-06 1.61302e-03 -4.12396e-04 4.00000e-01
4.21e-01 4.21e-01 4.79531e-01 4.17683e-01 1.02786e-01 1.04349e+05 2.86065e+02 4.60340e-05 -3.88006e-05 8.42496e-06 -6.42747e-06 1.50640e-03 -4.56645e-04 4.00000e-01
4.21e-01 3.68e-01 4.80300e-01 4.22716e-01 9.69848e-02 1.04035e+05 2.85622e+02 4.57802e-05 -4.06681e-05 8.67018e-06 -7.01097e-06 1.35970e-03 -4.77074e-04 4.00000e-01
4.21e-01 3.16e-01 4.80026e-01 4.29322e-01 9.06520e-02 1.03676e+05 2.85279e+02 4.54495e-05 -4.20443e-05 9.14559e-06 -7.73568e-06 1.20892e-03 -4.73120e-04 4.00000e-01
4.21e-01 2.63e-01 4.77509e-01 4.38516e-01 8.39752e-02 1.03280e+05 2.85079e+02 4.51365e-05 -4.23706e-05 1.01210e-05 -8.71312e-06 1.06961e-03 -4.44092e-04 4.00000e-01
4.21e-01 2.11e-01 4.70488e-01 4.52807e-01 7.67048e-02 1.02859e+05 2.85028e+02 4.38887e-05 -4.14840e-05 1.20156e-05 -1.04459e-05 9.28710e-04 -4.04627e-04 4.00000e-01
4.21e-01 1.58e-01 4.52413e-01 4.79228e-01 6.83589e-02 1.02399e+05 2.85083e+02 4.23215e-05 -3.71787e-05 1.75190e-05 -1.41887e-05 8.29856e-04 -3.47258e-04 4.00000e-01
4.21e-01 1.05e-01 3.92762e-01 5.44451e-01 6.27864e-02 1.01921e+05 2.85251e+02 2.57741e-05 -2.41840e-05 3.37503e-05 -2.93512e-05 7.08125e-04 -3.38827e-04 4.00000e-01
4.21e-01 5.26e-02 2.06299e-01 6.77949e-01 1.15753e-01 1.01326e+05 2.85450e+02 2.47172e-06 -2.00936e-06 1.04039e-04 -7.65621e-05 1.96672e-03 -5.85871e-04 4.00000e-01
4.21e-01 0.00e+00 2.06297e-01 6.77949e-01 1.15754e-01 1.01326e+05 2.85450e+02 2.47172e-06 -1.27478e-06 1.04039e-04 -4.56424e-05 1.96672e-03 -1.37533e-06 4.00000e-01