TITLE =  "Filtration in time=10000.00" 
VARIABLES = "Y","S_w","S_n","S_g","P_w","T","uw_y","un_y","ug_y","porosity" 
ZONE T = "BIG ZONE", K=25, F = POINT
1.00e+00 1.00000e-02 1.00000e-02 9.80000e-01 1.00000e+05 3.20000e+02 -9.57341e-11 -7.30856e-11 4.56472e-06 4.00000e-01
9.58e-01 7.21204e-02 9.37380e-02 8.34142e-01 1.00001e+05 3.04032e+02 -5.81914e-08 -8.33689e-08 2.25707e-06 4.00000e-01
9.17e-01 9.96521e-02 1.37773e-01 7.62574e-01 1.00001e+05 2.94662e+02 -1.39991e-07 -2.05465e-07 1.25193e-06 4.00000e-01
8.75e-01 1.21548e-01 1.72911e-01 7.05540e-01 1.00002e+05 2.88961e+02 -2.33786e-07 -3.41051e-07 7.85080e-07 4.00000e-01
8.33e-01 1.38283e-01 1.98391e-01 6.63326e-01 1.00002e+05 2.86146e+02 -3.31115e-07 -4.74078e-07 6.95461e-07 4.00000e-01
7.92e-01 1.51049e-01 2.16614e-01 6.32337e-01 1.00003e+05 2.85026e+02 -4.30542e-07 -6.03319e-07 8.05627e-07 4.00000e-01
7.50e-01 1.61415e-01 2.30680e-01 6.07905e-01 1.00003e+05 2.84686e+02 -5.33724e-07 -7.32704e-07 1.00424e-06 4.00000e-01
7.08e-01 1.70451e-01 2.42573e-01 5.86976e-01 1.00004e+05 2.84640e+02 -6.42074e-07 -8.64963e-07 1.24048e-06 4.00000e-01
6.67e-01 1.78670e-01 2.53173e-01 5.68157e-01 1.00004e+05 2.84714e+02 -7.56546e-07 -1.00144e-06 1.49665e-06 4.00000e-01
6.25e-01 1.86106e-01 2.62449e-01 5.51446e-01 1.00005e+05 2.85059e+02 -8.80868e-07 -1.14839e-06 1.77982e-06 4.00000e-01
5.83e-01 1.91296e-01 2.67495e-01 5.41208e-01 1.00006e+05 2.87151e+02 -1.04015e-06 -1.35569e-06 3.18209e-06 4.00000e-01
5.42e-01 2.45458e-01 3.72994e-01 3.81549e-01 1.00006e+05 2.91665e+02 -1.60007e-06 -2.66940e-06 3.71233e-03 4.00000e-01
5.00e-01 3.58270e-01 6.40733e-01 9.97129e-04 1.00360e+05 2.86826e+02 -8.55980e-07 1.94117e-06 0.00000e+00 4.00000e-01
4.58e-01 5.18473e-01 4.80540e-01 9.87736e-04 1.00746e+05 2.84564e+02 -9.43986e-07 8.14542e-07 0.00000e+00 4.00000e-01
4.17e-01 6.00947e-01 3.98071e-01 9.81546e-04 1.01153e+05 2.82943e+02 -1.86498e-07 3.39710e-07 0.00000e+00 4.00000e-01
3.75e-01 6.35378e-01 3.63642e-01 9.80357e-04 1.01561e+05 2.83120e+02 -6.36792e-08 2.16826e-07 0.00000e+00 4.00000e-01
3.33e-01 6.54553e-01 3.44468e-01 9.78753e-04 1.01970e+05 2.83516e+02 -3.32922e-08 1.66947e-07 0.00000e+00 4.00000e-01
2.92e-01 6.64889e-01 3.34134e-01 9.76653e-04 1.02379e+05 2.83954e+02 -3.02227e-08 1.45429e-07 0.00000e+00 4.00000e-01
2.50e-01 6.69734e-01 3.29292e-01 9.74149e-04 1.02788e+05 2.84369e+02 -3.86375e-08 1.37363e-07 0.00000e+00 4.00000e-01
2.08e-01 6.71929e-01 3.27100e-01 9.71399e-04 1.03197e+05 2.84732e+02 -5.02928e-08 1.34840e-07 0.00000e+00 4.00000e-01
1.67e-01 6.74286e-01 3.24746e-01 9.68563e-04 1.03606e+05 2.85036e+02 -5.85967e-08 1.31632e-07 0.00000e+00 4.00000e-01
1.25e-01 6.80014e-01 3.19020e-01 9.65558e-04 1.04015e+05 2.85257e+02 -5.69644e-08 1.21151e-07 0.00000e+00 4.00000e-01
8.33e-02 6.93420e-01 3.05618e-01 9.61952e-04 1.04424e+05 2.85186e+02 -4.03303e-08 9.64074e-08 0.00000e+00 4.00000e-01
4.17e-02 7.22340e-01 2.76701e-01 9.58554e-04 1.04833e+05 2.84130e+02 -9.57828e-09 2.71475e-08 0.00000e+00 4.00000e-01
0.00e+00 7.22340e-01 2.76701e-01 9.58554e-04 1.05243e+05 2.85000e+02 1.73912e-10 3.58953e-12 0.00000e+00 4.00000e-01
