TITLE =  "Filtration in time=4000.00" 
VARIABLES = "Y","S_w","S_n","S_g","P_w","T","uw_y","un_y","ug_y","porosity" 
ZONE T = "BIG ZONE", K=25, F = POINT
1.00e+00 1.00000e-02 1.00000e-02 9.80000e-01 1.00000e+05 3.20000e+02 -9.57329e-11 -7.30845e-11 4.98701e-06 4.00000e-01
9.58e-01 1.11556e-01 1.48886e-01 7.39558e-01 1.00001e+05 2.96226e+02 -2.14148e-07 -2.83474e-07 1.68071e-06 4.00000e-01
9.17e-01 1.51888e-01 2.09009e-01 6.39103e-01 1.00001e+05 2.87665e+02 -4.80072e-07 -5.99041e-07 1.26803e-06 4.00000e-01
8.75e-01 1.78384e-01 2.43968e-01 5.77648e-01 1.00002e+05 2.85129e+02 -7.63658e-07 -8.86881e-07 1.59294e-06 4.00000e-01
8.33e-01 1.97649e-01 2.66042e-01 5.36310e-01 1.00002e+05 2.84649e+02 -1.06716e-06 -1.15008e-06 2.12747e-06 4.00000e-01
7.92e-01 2.13587e-01 2.81880e-01 5.04532e-01 1.00003e+05 2.84654e+02 -1.39340e-06 -1.38332e-06 2.70032e-06 4.00000e-01
7.50e-01 2.27690e-01 2.93545e-01 4.78765e-01 1.00004e+05 2.84731e+02 -1.74124e-06 -1.57109e-06 3.25652e-06 4.00000e-01
7.08e-01 2.40513e-01 3.01597e-01 4.57890e-01 1.00004e+05 2.84797e+02 -2.10833e-06 -1.69896e-06 3.77131e-06 4.00000e-01
6.67e-01 2.52327e-01 3.06413e-01 4.41260e-01 1.00005e+05 2.84846e+02 -2.49229e-06 -1.76198e-06 4.23538e-06 4.00000e-01
6.25e-01 2.63298e-01 3.08588e-01 4.28114e-01 1.00006e+05 2.84881e+02 -2.89097e-06 -1.76825e-06 4.65348e-06 4.00000e-01
5.83e-01 2.73545e-01 3.08932e-01 4.17523e-01 1.00006e+05 2.84905e+02 -3.30240e-06 -1.73563e-06 5.04062e-06 4.00000e-01
5.42e-01 2.83159e-01 3.08270e-01 4.08571e-01 1.00007e+05 2.84922e+02 -3.72475e-06 -1.68377e-06 5.41477e-06 4.00000e-01
5.00e-01 2.92205e-01 3.07229e-01 4.00566e-01 1.00008e+05 2.84937e+02 -4.15652e-06 -1.62746e-06 5.78960e-06 4.00000e-01
4.58e-01 3.00639e-01 3.06102e-01 3.93260e-01 1.00009e+05 2.85025e+02 -4.60281e-06 -1.57925e-06 6.15788e-06 4.00000e-01
4.17e-01 3.06274e-01 3.03533e-01 3.90194e-01 1.00010e+05 2.86772e+02 -5.17230e-06 -1.63022e-06 8.18643e-05 4.00000e-01
3.75e-01 5.58775e-01 3.71644e-01 6.95810e-02 1.00017e+05 2.86696e+02 -2.17342e-05 -8.14255e-07 1.99385e-04 4.00000e-01
3.33e-01 6.42939e-01 3.56065e-01 9.96190e-04 1.00425e+05 2.84196e+02 -9.25845e-08 2.05366e-07 0.00000e+00 4.00000e-01
2.92e-01 6.60229e-01 3.38777e-01 9.93377e-04 1.00833e+05 2.84457e+02 -5.28892e-08 1.60809e-07 0.00000e+00 4.00000e-01
2.50e-01 6.68085e-01 3.30925e-01 9.90109e-04 1.01242e+05 2.84682e+02 -5.31735e-08 1.43698e-07 0.00000e+00 4.00000e-01
2.08e-01 6.70872e-01 3.28142e-01 9.86630e-04 1.01651e+05 2.84864e+02 -6.31904e-08 1.38490e-07 0.00000e+00 4.00000e-01
1.67e-01 6.71664e-01 3.27353e-01 9.83003e-04 1.02059e+05 2.84968e+02 -7.52085e-08 1.37197e-07 0.00000e+00 4.00000e-01
1.25e-01 6.72842e-01 3.26179e-01 9.79278e-04 1.02468e+05 2.85008e+02 -8.28012e-08 1.34676e-07 0.00000e+00 4.00000e-01
8.33e-02 6.77922e-01 3.21102e-01 9.75563e-04 1.02877e+05 2.84937e+02 -7.35551e-08 1.23551e-07 0.00000e+00 4.00000e-01
4.17e-02 6.97581e-01 3.01445e-01 9.73156e-04 1.03285e+05 2.84200e+02 -2.87671e-08 4.27622e-08 0.00000e+00 4.00000e-01
0.00e+00 6.97581e-01 3.01445e-01 9.73156e-04 1.03695e+05 2.85000e+02 1.51779e-10 5.62643e-12 0.00000e+00 4.00000e-01
